Gromacs Runs On Most of All Computer Systems
   15
    1LIG      N    1   0.099   0.010  -0.008
    1LIG     H1    2   0.068  -0.084   0.007
    1LIG     H2    3   0.199   0.012  -0.012
    1LIG     H3    4   0.067   0.068   0.067
    1LIG     CA    5   0.042   0.062  -0.139
    1LIG     HA    6   0.073   0.004  -0.214
    1LIG     CB    7  -0.109   0.057  -0.132
    1LIG    HB1    8  -0.141   0.113  -0.055
    1LIG    HB2    9  -0.139  -0.037  -0.118
    1LIG     CG   10  -0.169   0.109  -0.259
    1LIG    OD1   11  -0.186   0.243  -0.263
    1LIG    OD2   12  -0.201   0.035  -0.352
    1LIG      C   13   0.089   0.208  -0.163
    1LIG    OT1   14   0.170   0.264  -0.068
    1LIG    OT2   15   0.046   0.269  -0.277
   0.51140   0.69060   0.74620   0.00000   0.00000   0.00000   0.00000  -0.14046   0.00000
