METHYL-ACCEPTING CHEMOTAXIS PROTEIN II in water
95969
    1LIG      N    1   2.545   9.504   5.035
    1LIG     H1    2   2.613   9.556   5.086
    1LIG     H2    3   2.590   9.453   4.962
    1LIG     H3    4   2.478   9.567   4.995
    1LIG     CA    5   2.474   9.407   5.128
    1LIG     HA    6   2.541   9.345   5.168
    1LIG     CB    7   2.407   9.486   5.238
    1LIG    HB1    8   2.342   9.551   5.199
    1LIG    HB2    9   2.476   9.536   5.290
    1LIG     CG   10   2.334   9.393   5.332
    1LIG    OD1   11   2.208   9.363   5.294
    1LIG    OD2   12   2.386   9.350   5.435
    1LIG      C   13   2.368   9.326   5.049
    1LIG    OT1   14   2.355   9.352   4.915
    1LIG    OT2   15   2.295   9.234   5.119
    2LIG      N   16   0.408   2.597   0.569
    2LIG     H1   17   0.310   2.588   0.587
    2LIG     H2   18   0.422   2.623   0.473
    2LIG     H3   19   0.453   2.510   0.588
    2LIG     CA   20   0.465   2.705   0.660
    2LIG     HA   21   0.420   2.792   0.642
    2LIG     CB   22   0.441   2.665   0.804
    2LIG    HB1   23   0.485   2.577   0.822
    2LIG    HB2   24   0.344   2.657   0.821
    2LIG     CG   25   0.498   2.768   0.896
    2LIG    OD1   26   0.629   2.751   0.927
    2LIG    OD2   27   0.431   2.860   0.942
    2LIG      C   28   0.618   2.720   0.634
    2LIG    OT1   29   0.673   2.639   0.539
    2LIG    OT2   30   0.684   2.813   0.708
    3LIG      N   31   4.080   1.284   1.543
    3LIG     H1   32   4.178   1.282   1.520
    3LIG     H2   33   4.069   1.297   1.641
    3LIG     H3   34   4.038   1.197   1.515
    3LIG     CA   35   4.013   1.398   1.468
    3LIG     HA   36   4.054   1.484   1.494
    3LIG     CB   37   4.032   1.377   1.319
    3LIG    HB1   38   3.992   1.288   1.292
    3LIG    HB2   39   4.129   1.376   1.298
    3LIG     CG   40   3.965   1.486   1.242
    3LIG    OD1   41   3.834   1.465   1.215
    3LIG    OD2   42   4.025   1.587   1.205
    3LIG      C   43   3.861   1.400   1.502
    3LIG    OT1   44   3.815   1.306   1.589
    3LIG    OT2   45   3.786   1.497   1.442
    4LIG      N   46   0.846   8.993   1.247
    4LIG     H1   47   0.786   8.914   1.259
    4LIG     H2   48   0.855   9.014   1.149
    4LIG     H3   49   0.936   8.973   1.286
    4LIG     CA   50   0.787   9.114   1.319
    4LIG     HA   51   0.697   9.134   1.281
    4LIG     CB   52   0.773   9.081   1.466
    4LIG    HB1   53   0.863   9.058   1.504
    4LIG    HB2   54   0.712   9.003   1.477
    4LIG     CG   55   0.716   9.198   1.540
    4LIG    OD1   56   0.808   9.289   1.582
    4LIG    OD2   57   0.596   9.211   1.562
    4LIG      C   58   0.880   9.237   1.301
    4LIG    OT1   59   0.994   9.219   1.227
    4LIG    OT2   60   0.841   9.353   1.359
    5LIG      N   61   8.912   3.372   0.517
    5LIG     H1   62   8.816   3.400   0.509
    5LIG     H2   63   8.957   3.385   0.429
    5LIG     H3   64   8.915   3.275   0.543
    5LIG     CA   65   8.981   3.455   0.623
    5LIG     HA   66   8.977   3.551   0.598
    5LIG     CB   67   8.910   3.435   0.755
    5LIG    HB1   68   8.911   3.338   0.780
    5LIG    HB2   69   8.815   3.465   0.747
    5LIG     CG   70   8.977   3.514   0.863
    5LIG    OD1   71   9.080   3.452   0.924
    5LIG    OD2   72   8.940   3.628   0.894
    5LIG      C   73   9.130   3.410   0.636
    5LIG    OT1   74   9.172   3.309   0.554
    5LIG    OT2   75   9.206   3.476   0.728
    6LIG      N   76   5.333   0.129   8.505
    6LIG     H1   77   5.296   0.167   8.589
    6LIG     H2   78   5.403   0.190   8.468
    6LIG     H3   79   5.260   0.116   8.438
    6LIG     CA   80   5.396  -0.007   8.535
    6LIG     HA   81   5.469   0.005   8.603
    6LIG     CB   82   5.290  -0.098   8.593
    6LIG    HB1   83   5.215  -0.108   8.527
    6LIG    HB2   84   5.254  -0.059   8.677
    6LIG     CG   85   5.348  -0.233   8.622
    6LIG    OD1   86   5.348  -0.319   8.518
    6LIG    OD2   87   5.391  -0.263   8.734
    6LIG      C   88   5.455  -0.068   8.405
    6LIG    OT1   89   5.441   0.005   8.290
    6LIG    OT2   90   5.515  -0.190   8.416
    7LIG      N   91   2.364   7.009   5.040
    7LIG     H1   92   2.311   7.080   5.087
    7LIG     H2   93   2.303   6.941   5.001
    7LIG     H3   94   2.426   6.966   5.106
    7LIG     CA   95   2.448   7.073   4.930
    7LIG     HA   96   2.387   7.117   4.864
    7LIG     CB   97   2.539   7.177   4.991
    7LIG    HB1   98   2.598   7.133   5.059
    7LIG    HB2   99   2.485   7.247   5.036
    7LIG     CG  100   2.624   7.240   4.885
    7LIG    OD1  101   2.738   7.174   4.857
    7LIG    OD2  102   2.591   7.345   4.829
    7LIG      C  103   2.532   6.964   4.858
    7LIG    OT1  104   2.519   6.835   4.903
    7LIG    OT2  105   2.612   7.005   4.756
    8LIG      N  106   8.472   2.327   5.206
    8LIG     H1  107   8.425   2.312   5.119
    8LIG     H2  108   8.571   2.330   5.190
    8LIG     H3  109   8.450   2.252   5.269
    8LIG     CA  110   8.427   2.459   5.267
    8LIG     HA  111   8.448   2.533   5.204
    8LIG     CB  112   8.277   2.453   5.290
    8LIG    HB1  113   8.255   2.376   5.350
    8LIG    HB2  114   8.231   2.440   5.203
    8LIG     CG  115   8.229   2.581   5.351
    8LIG    OD1  116   8.237   2.585   5.486
    8LIG    OD2  117   8.185   2.674   5.284
    8LIG      C  118   8.500   2.482   5.402
    8LIG    OT1  119   8.589   2.386   5.443
    8LIG    OT2  120   8.470   2.596   5.470
    9LIG      N  121   9.714   5.625   5.271
    9LIG     H1  122   9.649   5.667   5.208
    9LIG     H2  123   9.695   5.656   5.364
    9LIG     H3  124   9.807   5.651   5.245
    9LIG     CA  125   9.701   5.474   5.264
    9LIG     HA  126   9.608   5.448   5.290
    9LIG     CB  127   9.728   5.428   5.123
    9LIG    HB1  128   9.820   5.457   5.096
    9LIG    HB2  129   9.662   5.470   5.061
    9LIG     CG  130   9.717   5.279   5.113
    9LIG    OD1  131   9.831   5.212   5.143
    9LIG    OD2  132   9.613   5.223   5.079
    9LIG      C  133   9.802   5.407   5.362
    9LIG    OT1  134   9.883   5.491   5.434
    9LIG    OT2  135   9.802   5.271   5.367
   10LIG      N  136   0.382   3.385   4.607
   10LIG     H1  137   0.406   3.433   4.691
   10LIG     H2  138   0.284   3.398   4.588
   10LIG     H3  139   0.401   3.287   4.619
   10LIG     CA  140   0.464   3.439   4.492
   10LIG     HA  141   0.446   3.536   4.480
   10LIG     CB  142   0.611   3.419   4.523
   10LIG    HB1  143   0.630   3.322   4.537
   10LIG    HB2  144   0.634   3.469   4.606
   10LIG     CG  145   0.695   3.470   4.410
   10LIG    OD1  146   0.717   3.381   4.311
   10LIG    OD2  147   0.742   3.584   4.408
   10LIG      C  148   0.427   3.363   4.361
   10LIG    OT1  149   0.332   3.266   4.370
   10LIG    OT2  150   0.493   3.400   4.247
   11LIG      N  151   9.103   2.033   5.235
   11LIG     H1  152   9.143   1.955   5.284
   11LIG     H2  153   9.094   2.110   5.298
   11LIG     H3  154   9.012   2.007   5.200
   11LIG     CA  155   9.192   2.071   5.119
   11LIG     HA  156   9.283   2.096   5.153
   11LIG     CB  157   9.206   1.953   5.026
   11LIG    HB1  158   9.115   1.926   4.993
   11LIG    HB2  159   9.246   1.876   5.074
   11LIG     CG  160   9.292   1.988   4.909
   11LIG    OD1  161   9.227   2.046   4.805
   11LIG    OD2  162   9.413   1.964   4.907
   11LIG      C  163   9.131   2.192   5.043
   11LIG    OT1  164   9.013   2.242   5.090
   11LIG    OT2  165   9.200   2.239   4.935
   12LIG      N  166   5.604   8.992   7.554
   12LIG     H1  167   5.536   9.000   7.628
   12LIG     H2  168   5.595   8.903   7.510
   12LIG     H3  169   5.696   9.002   7.592
   12LIG     CA  170   5.580   9.102   7.452
   12LIG     HA  171   5.488   9.093   7.414
   12LIG     CB  172   5.592   9.236   7.520
   12LIG    HB1  173   5.684   9.245   7.560
   12LIG    HB2  174   5.524   9.244   7.592
   12LIG     CG  175   5.571   9.347   7.422
   12LIG    OD1  176   5.682   9.385   7.354
   12LIG    OD2  177   5.461   9.400   7.404
   12LIG      C  178   5.684   9.091   7.337
   12LIG    OT1  179   5.776   8.990   7.346
   12LIG    OT2  180   5.676   9.183   7.237
   13LIG      N  181   0.393   5.881   1.955
   13LIG     H1  182   0.449   5.955   1.993
   13LIG     H2  183   0.452   5.809   1.919
   13LIG     H3  184   0.336   5.917   1.881
   13LIG     CA  185   0.304   5.825   2.064
   13LIG     HA  186   0.360   5.789   2.138
   13LIG     CB  187   0.216   5.935   2.118
   13LIG    HB1  188   0.160   5.973   2.043
   13LIG    HB2  189   0.272   6.008   2.156
   13LIG     CG  190   0.125   5.883   2.225
   13LIG    OD1  191   0.009   5.830   2.180
   13LIG    OD2  192   0.154   5.889   2.344
   13LIG      C  193   0.216   5.710   2.007
   13LIG    OT1  194   0.232   5.680   1.874
   13LIG    OT2  195   0.130   5.649   2.093
   14LIG      N  196   2.360   8.230   7.908
   14LIG     H1  197   2.342   8.201   8.002
   14LIG     H2  198   2.273   8.242   7.860
   14LIG     H3  199   2.415   8.162   7.861
   14LIG     CA  200   2.434   8.363   7.910
   14LIG     HA  201   2.380   8.431   7.957
   14LIG     CB  202   2.565   8.344   7.984
   14LIG    HB1  203   2.620   8.273   7.938
   14LIG    HB2  204   2.547   8.316   8.077
   14LIG     CG  205   2.643   8.472   7.986
   14LIG    OD1  206   2.721   8.493   7.878
   14LIG    OD2  207   2.636   8.552   8.079
   14LIG      C  208   2.462   8.409   7.764
   14LIG    OT1  209   2.418   8.329   7.663
   14LIG    OT2  210   2.529   8.527   7.749
   15LIG      N  211   9.192   0.611   2.064
   15LIG     H1  212   9.264   0.559   2.110
   15LIG     H2  213   9.118   0.630   2.128
   15LIG     H3  214   9.157   0.557   1.986
   15LIG     CA  215   9.249   0.742   2.011
   15LIG     HA  216   9.285   0.795   2.088
   15LIG     CB  217   9.362   0.711   1.916
   15LIG    HB1  218   9.328   0.655   1.840
   15LIG    HB2  219   9.434   0.660   1.963
   15LIG     CG  220   9.420   0.838   1.861
   15LIG    OD1  221   9.357   0.886   1.752
   15LIG    OD2  222   9.518   0.892   1.911
   15LIG      C  223   9.139   0.822   1.939
   15LIG    OT1  224   9.014   0.767   1.933
   15LIG    OT2  225   9.175   0.943   1.886
   16LIG      N  226   7.788   3.497   0.136
   16LIG     H1  227   7.774   3.585   0.180
   16LIG     H2  228   7.878   3.461   0.161
   16LIG     H3  229   7.782   3.507   0.037
   16LIG     CA  230   7.681   3.399   0.182
   16LIG     HA  231   7.686   3.389   0.282
   16LIG     CB  232   7.545   3.455   0.145
   16LIG    HB1  233   7.540   3.468   0.046
   16LIG    HB2  234   7.531   3.543   0.190
   16LIG     CG  235   7.437   3.360   0.188
   16LIG    OD1  236   7.408   3.263   0.099
   16LIG    OD2  237   7.378   3.372   0.296
   16LIG      C  238   7.702   3.261   0.114
   16LIG    OT1  239   7.808   3.249   0.029
   16LIG    OT2  240   7.613   3.162   0.146
   17LIG      N  241   3.353   0.866   9.244
   17LIG     H1  242   3.415   0.944   9.253
   17LIG     H2  243   3.271   0.894   9.194
   17LIG     H3  244   3.327   0.834   9.336
   17LIG     CA  245   3.422   0.754   9.170
   17LIG     HA  246   3.448   0.785   9.079
   17LIG     CB  247   3.546   0.713   9.246
   17LIG    HB1  248   3.521   0.684   9.338
   17LIG    HB2  249   3.608   0.791   9.253
   17LIG     CG  250   3.617   0.601   9.176
   17LIG    OD1  251   3.572   0.478   9.207
   17LIG    OD2  252   3.708   0.621   9.096
   17LIG      C  253   3.326   0.632   9.156
   17LIG    OT1  254   3.202   0.644   9.211
   17LIG    OT2  255   3.374   0.522   9.091
   18LIG      N  256   2.623   0.712   0.353
   18LIG     H1  257   2.720   0.697   0.336
   18LIG     H2  258   2.611   0.751   0.445
   18LIG     H3  259   2.574   0.624   0.347
   18LIG     CA  260   2.566   0.807   0.250
   18LIG     HA  261   2.615   0.894   0.255
   18LIG     CB  262   2.587   0.748   0.112
   18LIG    HB1  263   2.540   0.659   0.107
   18LIG    HB2  264   2.684   0.734   0.095
   18LIG     CG  265   2.531   0.838   0.007
   18LIG    OD1  266   2.399   0.822  -0.019
   18LIG    OD2  267   2.600   0.921  -0.052
   18LIG      C  268   2.415   0.830   0.275
   18LIG    OT1  269   2.359   0.765   0.382
   18LIG    OT2  270   2.350   0.914   0.190
   19LIG      N  271   4.503   0.082   5.619
   19LIG     H1  272   4.519  -0.013   5.593
   19LIG     H2  273   4.513   0.092   5.719
   19LIG     H3  274   4.411   0.110   5.592
   19LIG     CA  275   4.604   0.171   5.549
   19LIG     HA  276   4.697   0.144   5.576
   19LIG     CB  277   4.589   0.155   5.400
   19LIG    HB1  278   4.496   0.179   5.373
   19LIG    HB2  279   4.606   0.060   5.375
   19LIG     CG  280   4.687   0.242   5.327
   19LIG    OD1  281   4.644   0.368   5.305
   19LIG    OD2  282   4.797   0.201   5.290
   19LIG      C  283   4.581   0.320   5.589
   19LIG    OT1  284   4.479   0.346   5.675
   19LIG    OT2  285   4.664   0.412   5.533
   20LIG      N  286   7.905   9.155   4.408
   20LIG     H1  287   7.945   9.156   4.317
   20LIG     H2  288   7.935   9.073   4.457
   20LIG     H3  289   7.805   9.156   4.401
   20LIG     CA  290   7.951   9.279   4.484
   20LIG     HA  291   8.051   9.279   4.491
   20LIG     CB  292   7.907   9.402   4.408
   20LIG    HB1  293   7.807   9.401   4.399
   20LIG    HB2  294   7.948   9.402   4.318
   20LIG     CG  295   7.949   9.526   4.481
   20LIG    OD1  296   7.862   9.568   4.576
   20LIG    OD2  297   8.054   9.585   4.456
   20LIG      C  298   7.889   9.279   4.627
   20LIG    OT1  299   7.808   9.174   4.660
   20LIG    OT2  300   7.921   9.384   4.708
   21LIG      N  301   8.546   7.265   0.630
   21LIG     H1  302   8.585   7.306   0.713
   21LIG     H2  303   8.450   7.293   0.621
   21LIG     H3  304   8.552   7.166   0.635
   21LIG     CA  305   8.624   7.313   0.508
   21LIG     HA  306   8.619   7.413   0.503
   21LIG     CB  307   8.769   7.272   0.524
   21LIG    HB1  308   8.774   7.172   0.532
   21LIG    HB2  309   8.807   7.313   0.606
   21LIG     CG  310   8.849   7.316   0.405
   21LIG    OD1  311   8.848   7.230   0.301
   21LIG    OD2  312   8.911   7.423   0.403
   21LIG      C  313   8.565   7.251   0.379
   21LIG    OT1  314   8.457   7.168   0.393
   21LIG    OT2  315   8.624   7.285   0.261
   22LIG      N  316   2.697   4.724   9.966
   22LIG     H1  317   2.734   4.814   9.988
   22LIG     H2  318   2.763   4.653   9.993
   22LIG     H3  319   2.679   4.718   9.868
   22LIG     CA  320   2.567   4.703  10.042
   22LIG     HA  321   2.584   4.709  10.140
   22LIG     CB  322   2.469   4.810  10.002
   22LIG    HB1  323   2.453   4.806   9.903
   22LIG    HB2  324   2.506   4.900  10.025
   22LIG     CG  325   2.339   4.792  10.074
   22LIG    OD1  326   2.252   4.708  10.013
   22LIG    OD2  327   2.313   4.849  10.179
   22LIG      C  328   2.509   4.563  10.008
   22LIG    OT1  329   2.579   4.485   9.921
   22LIG    OT2  330   2.391   4.528  10.069
   23LIG      N  331   2.234   1.956   8.588
   23LIG     H1  332   2.320   1.908   8.575
   23LIG     H2  333   2.198   1.986   8.500
   23LIG     H3  334   2.248   2.036   8.647
   23LIG     CA  335   2.133   1.863   8.654
   23LIG     HA  336   2.119   1.783   8.596
   23LIG     CB  337   2.189   1.818   8.788
   23LIG    HB1  338   2.206   1.898   8.846
   23LIG    HB2  339   2.275   1.770   8.774
   23LIG     CG  340   2.092   1.727   8.857
   23LIG    OD1  341   1.998   1.790   8.931
   23LIG    OD2  342   2.098   1.605   8.847
   23LIG      C  343   1.998   1.937   8.676
   23LIG    OT1  344   1.991   2.067   8.634
   23LIG    OT2  345   1.898   1.867   8.734
   24LIG      N  346   0.493   2.408   2.442
   24LIG     H1  347   0.471   2.356   2.360
   24LIG     H2  348   0.469   2.355   2.523
   24LIG     H3  349   0.442   2.494   2.441
   24LIG     CA  350   0.642   2.439   2.444
   24LIG     HA  351   0.694   2.354   2.444
   24LIG     CB  352   0.677   2.518   2.320
   24LIG    HB1  353   0.624   2.603   2.318
   24LIG    HB2  354   0.656   2.465   2.238
   24LIG     CG  355   0.823   2.552   2.319
   24LIG    OD1  356   0.856   2.665   2.385
   24LIG    OD2  357   0.907   2.482   2.261
   24LIG      C  358   0.678   2.521   2.571
   24LIG    OT1  359   0.575   2.551   2.656
   24LIG    OT2  360   0.808   2.557   2.587
   25LIG      N  361   0.791   3.502   8.490
   25LIG     H1  362   0.774   3.487   8.392
   25LIG     H2  363   0.717   3.462   8.544
   25LIG     H3  364   0.797   3.600   8.508
   25LIG     CA  365   0.923   3.436   8.529
   25LIG     HA  366   0.918   3.338   8.510
   25LIG     CB  367   1.034   3.496   8.446
   25LIG    HB1  368   1.038   3.595   8.462
   25LIG    HB2  369   1.016   3.480   8.349
   25LIG     CG  370   1.166   3.435   8.482
   25LIG    OD1  371   1.229   3.493   8.586
   25LIG    OD2  372   1.213   3.339   8.421
   25LIG      C  373   0.951   3.459   8.679
   25LIG    OT1  374   0.858   3.531   8.750
   25LIG    OT2  375   1.066   3.406   8.730
   26LIG      N  376   0.694   7.298   0.944
   26LIG     H1  377   0.700   7.213   0.892
   26LIG     H2  378   0.738   7.287   1.033
   26LIG     H3  379   0.597   7.322   0.957
   26LIG     CA  380   0.762   7.410   0.867
   26LIG     HA  381   0.858   7.387   0.853
   26LIG     CB  382   0.695   7.426   0.733
   26LIG    HB1  383   0.598   7.447   0.746
   26LIG    HB2  384   0.703   7.341   0.681
   26LIG     CG  385   0.759   7.536   0.655
   26LIG    OD1  386   0.710   7.659   0.680
   26LIG    OD2  387   0.849   7.516   0.573
   26LIG      C  388   0.753   7.543   0.947
   26LIG    OT1  389   0.687   7.539   1.067
   26LIG    OT2  390   0.810   7.653   0.891
   27LIG      N  391   4.662   0.011   4.939
   27LIG     H1  392   4.734   0.078   4.956
   27LIG     H2  393   4.623  -0.020   5.027
   27LIG     H3  394   4.700  -0.068   4.890
   27LIG     CA  395   4.552   0.073   4.855
   27LIG     HA  396   4.514   0.152   4.903
   27LIG     CB  397   4.612   0.120   4.724
   27LIG    HB1  398   4.653   0.042   4.676
   27LIG    HB2  399   4.682   0.188   4.742
   27LIG     CG  400   4.506   0.181   4.638
   27LIG    OD1  401   4.438   0.094   4.561
   27LIG    OD2  402   4.484   0.302   4.636
   27LIG      C  403   4.440  -0.031   4.828
   27LIG    OT1  404   4.457  -0.156   4.881
   27LIG    OT2  405   4.334   0.010   4.753
   28LIG      N  406   9.525   9.025   3.254
   28LIG     H1  407   9.518   9.034   3.154
   28LIG     H2  408   9.612   8.983   3.278
   28LIG     H3  409   9.449   8.970   3.287
   28LIG     CA  410   9.517   9.163   3.317
   28LIG     HA  411   9.592   9.220   3.283
   28LIG     CB  412   9.385   9.228   3.278
   28LIG    HB1  413   9.309   9.170   3.309
   28LIG    HB2  414   9.380   9.236   3.179
   28LIG     CG  415   9.373   9.363   3.340
   28LIG    OD1  416   9.322   9.364   3.465
   28LIG    OD2  417   9.406   9.466   3.281
   28LIG      C  418   9.526   9.152   3.471
   28LIG    OT1  419   9.539   9.026   3.524
   28LIG    OT2  420   9.520   9.267   3.543
   29LIG      N  421   3.466   1.485   1.948
   29LIG     H1  422   3.405   1.563   1.931
   29LIG     H2  423   3.511   1.496   2.037
   29LIG     H3  424   3.535   1.480   1.876
   29LIG     CA  425   3.385   1.356   1.949
   29LIG     HA  426   3.315   1.361   2.021
   29LIG     CB  427   3.316   1.341   1.815
   29LIG    HB1  428   3.385   1.339   1.742
   29LIG    HB2  429   3.255   1.418   1.800
   29LIG     CG  430   3.236   1.214   1.812
   29LIG    OD1  431   3.305   1.104   1.775
   29LIG    OD2  432   3.116   1.211   1.840
   29LIG      C  433   3.478   1.235   1.975
   29LIG    OT1  434   3.611   1.261   1.992
   29LIG    OT2  435   3.419   1.112   1.979
   30LIG      N  436   1.287   9.327   4.735
   30LIG     H1  437   1.274   9.228   4.735
   30LIG     H2  438   1.210   9.371   4.783
   30LIG     H3  439   1.291   9.361   4.641
   30LIG     CA  440   1.416   9.362   4.806
   30LIG     HA  441   1.413   9.329   4.900
   30LIG     CB  442   1.531   9.295   4.734
   30LIG    HB1  443   1.534   9.326   4.639
   30LIG    HB2  444   1.518   9.196   4.736
   30LIG     CG  445   1.661   9.328   4.801
   30LIG    OD1  446   1.719   9.443   4.759
   30LIG    OD2  447   1.712   9.256   4.886
   30LIG      C  448   1.437   9.516   4.807
   30LIG    OT1  449   1.341   9.592   4.747
   30LIG    OT2  450   1.550   9.563   4.867
   31LIG      N  451   6.375   9.442   6.988
   31LIG     H1  452   6.313   9.457   6.911
   31LIG     H2  453   6.469   9.459   6.959
   31LIG     H3  454   6.366   9.348   7.020
   31LIG     CA  455   6.339   9.537   7.101
   31LIG     HA  456   6.347   9.631   7.069
   31LIG     CB  457   6.196   9.511   7.142
   31LIG    HB1  458   6.186   9.415   7.172
   31LIG    HB2  459   6.135   9.526   7.065
   31LIG     CG  460   6.156   9.601   7.255
   31LIG    OD1  461   6.187   9.556   7.378
   31LIG    OD2  462   6.099   9.709   7.236
   31LIG      C  463   6.434   9.514   7.222
   31LIG    OT1  464   6.530   9.418   7.208
   31LIG    OT2  465   6.413   9.592   7.332
   32LIG      N  466   4.194   1.619   5.155
   32LIG     H1  467   4.213   1.525   5.183
   32LIG     H2  468   4.209   1.628   5.056
   32LIG     H3  469   4.256   1.681   5.203
   32LIG     CA  470   4.051   1.656   5.189
   32LIG     HA  471   3.989   1.594   5.141
   32LIG     CB  472   4.030   1.641   5.338
   32LIG    HB1  473   4.094   1.701   5.387
   32LIG    HB2  474   4.048   1.546   5.365
   32LIG     CG  475   3.890   1.677   5.375
   32LIG    OD1  476   3.870   1.809   5.398
   32LIG    OD2  477   3.800   1.593   5.385
   32LIG      C  478   4.021   1.802   5.146
   32LIG    OT1  479   4.124   1.871   5.087
   32LIG    OT2  480   3.896   1.850   5.170
   33LIG      N  481   8.410   3.907   6.255
   33LIG     H1  482   8.457   3.819   6.258
   33LIG     H2  483   8.455   3.972   6.315
   33LIG     H3  484   8.315   3.894   6.284
   33LIG     CA  485   8.411   3.960   6.113
   33LIG     HA  486   8.505   3.972   6.082
   33LIG     CB  487   8.343   3.860   6.022
   33LIG    HB1  488   8.248   3.845   6.053
   33LIG    HB2  489   8.391   3.773   6.025
   33LIG     CG  490   8.341   3.910   5.881
   33LIG    OD1  491   8.236   3.990   5.850
   33LIG    OD2  492   8.427   3.879   5.799
   33LIG      C  493   8.337   4.096   6.106
   33LIG    OT1  494   8.285   4.144   6.223
   33LIG    OT2  495   8.329   4.157   5.985
   34LIG      N  496   9.845   5.740   2.669
   34LIG     H1  497   9.900   5.663   2.702
   34LIG     H2  498   9.844   5.740   2.569
   34LIG     H3  499   9.884   5.826   2.702
   34LIG     CA  500   9.703   5.727   2.721
   34LIG     HA  501   9.663   5.641   2.689
   34LIG     CB  502   9.706   5.726   2.872
   34LIG    HB1  503   9.748   5.811   2.905
   34LIG    HB2  504   9.760   5.649   2.904
   34LIG     CG  505   9.567   5.714   2.927
   34LIG    OD1  506   9.502   5.832   2.942
   34LIG    OD2  507   9.517   5.606   2.958
   34LIG      C  508   9.616   5.845   2.670
   34LIG    OT1  509   9.678   5.938   2.591
   34LIG    OT2  510   9.486   5.848   2.709
   35LIG      N  511   0.285   1.143   6.048
   35LIG     H1  512   0.199   1.183   6.080
   35LIG     H2  513   0.272   1.108   5.955
   35LIG     H3  514   0.313   1.069   6.108
   35LIG     CA  515   0.394   1.250   6.047
   35LIG     HA  516   0.366   1.325   5.987
   35LIG     CB  517   0.411   1.303   6.188
   35LIG    HB1  518   0.436   1.228   6.249
   35LIG    HB2  519   0.325   1.343   6.219
   35LIG     CG  520   0.518   1.407   6.191
   35LIG    OD1  521   0.643   1.359   6.207
   35LIG    OD2  522   0.493   1.528   6.181
   35LIG      C  523   0.527   1.189   5.997
   35LIG    OT1  524   0.527   1.057   5.962
   35LIG    OT2  525   0.635   1.273   5.990
   36LIG      N  526   8.979   3.098   7.596
   36LIG     H1  527   9.027   3.180   7.629
   36LIG     H2  528   8.984   3.095   7.496
   36LIG     H3  529   8.883   3.103   7.624
   36LIG     CA  530   9.043   2.974   7.655
   36LIG     HA  531   9.139   2.970   7.628
   36LIG     CB  532   9.035   2.982   7.806
   36LIG    HB1  533   8.938   2.989   7.834
   36LIG    HB2  534   9.083   3.063   7.838
   36LIG     CG  535   9.095   2.860   7.868
   36LIG    OD1  536   9.011   2.755   7.882
   36LIG    OD2  537   9.213   2.856   7.905
   36LIG      C  538   8.969   2.847   7.605
   36LIG    OT1  539   8.863   2.866   7.520
   36LIG    OT2  540   9.014   2.727   7.650
   37LIG      N  541   6.704   7.912   4.590
   37LIG     H1  542   6.777   7.924   4.522
   37LIG     H2  543   6.723   7.831   4.645
   37LIG     H3  544   6.617   7.900   4.543
   37LIG     CA  545   6.697   8.034   4.679
   37LIG     HA  546   6.785   8.046   4.726
   37LIG     CB  547   6.670   8.156   4.593
   37LIG    HB1  548   6.583   8.143   4.544
   37LIG    HB2  549   6.743   8.168   4.527
   37LIG     CG  550   6.661   8.279   4.678
   37LIG    OD1  551   6.539   8.303   4.730
   37LIG    OD2  552   6.758   8.352   4.699
   37LIG      C  553   6.584   8.017   4.784
   37LIG    OT1  554   6.513   7.901   4.780
   37LIG    OT2  555   6.566   8.119   4.872
   38LIG      N  556   7.476   1.827   6.671
   38LIG     H1  557   7.551   1.859   6.614
   38LIG     H2  558   7.486   1.862   6.764
   38LIG     H3  559   7.476   1.727   6.673
   38LIG     CA  560   7.344   1.874   6.613
   38LIG     HA  561   7.343   1.974   6.610
   38LIG     CB  562   7.330   1.821   6.472
   38LIG    HB1  563   7.334   1.721   6.473
   38LIG    HB2  564   7.405   1.855   6.416
   38LIG     CG  565   7.200   1.865   6.411
   38LIG    OD1  566   7.095   1.785   6.439
   38LIG    OD2  567   7.191   1.966   6.342
   38LIG      C  568   7.226   1.824   6.700
   38LIG    OT1  569   7.257   1.748   6.810
   38LIG    OT2  570   7.100   1.858   6.660
   39LIG      N  571   8.828   7.805   4.135
   39LIG     H1  572   8.758   7.738   4.159
   39LIG     H2  573   8.820   7.827   4.037
   39LIG     H3  574   8.919   7.768   4.154
   39LIG     CA  575   8.808   7.932   4.217
   39LIG     HA  576   8.717   7.969   4.199
   39LIG     CB  577   8.819   7.897   4.364
   39LIG    HB1  578   8.909   7.856   4.382
   39LIG    HB2  579   8.748   7.830   4.388
   39LIG     CG  580   8.801   8.019   4.448
   39LIG    OD1  581   8.914   8.090   4.470
   39LIG    OD2  582   8.692   8.052   4.495
   39LIG      C  583   8.916   8.037   4.180
   39LIG    OT1  584   9.007   8.001   4.084
   39LIG    OT2  585   8.912   8.156   4.245
   40LIG      N  586   9.089   5.946   1.002
   40LIG     H1  587   8.990   5.959   0.994
   40LIG     H2  588   9.116   5.952   1.098
   40LIG     H3  589   9.136   6.018   0.950
   40LIG     CA  590   9.128   5.810   0.946
   40LIG     HA  591   9.081   5.739   0.998
   40LIG     CB  592   9.086   5.803   0.801
   40LIG    HB1  593   9.131   5.876   0.749
   40LIG    HB2  594   8.987   5.814   0.794
   40LIG     CG  595   9.124   5.670   0.743
   40LIG    OD1  596   9.249   5.664   0.694
   40LIG    OD2  597   9.046   5.575   0.739
   40LIG      C  598   9.281   5.790   0.958
   40LIG    OT1  599   9.354   5.892   1.013
   40LIG    OT2  600   9.332   5.672   0.912
   41LIG      N  601   8.996   4.469   7.405
   41LIG     H1  602   9.079   4.468   7.350
   41LIG     H2  603   8.975   4.564   7.431
   41LIG     H3  604   9.009   4.414   7.488
   41LIG     CA  605   8.880   4.412   7.324
   41LIG     HA  606   8.868   4.467   7.242
   41LIG     CB  607   8.914   4.270   7.285
   41LIG    HB1  608   8.930   4.215   7.368
   41LIG    HB2  609   8.997   4.269   7.230
   41LIG     CG  610   8.802   4.210   7.206
   41LIG    OD1  611   8.705   4.153   7.281
   41LIG    OD2  612   8.800   4.211   7.083
   41LIG      C  613   8.750   4.414   7.409
   41LIG    OT1  614   8.759   4.464   7.536
   41LIG    OT2  615   8.637   4.366   7.350
   42LIG      N  616   9.554   4.218   3.017
   42LIG     H1  617   9.471   4.247   2.969
   42LIG     H2  618   9.530   4.181   3.106
   42LIG     H3  619   9.615   4.297   3.028
   42LIG     CA  620   9.625   4.111   2.935
   42LIG     HA  621   9.565   4.033   2.923
   42LIG     CB  622   9.660   4.168   2.799
   42LIG    HB1  623   9.718   4.249   2.811
   42LIG    HB2  624   9.576   4.196   2.752
   42LIG     CG  625   9.732   4.066   2.717
   42LIG    OD1  626   9.866   4.063   2.735
   42LIG    OD2  627   9.673   3.993   2.637
   42LIG      C  628   9.755   4.067   3.008
   42LIG    OT1  629   9.783   4.127   3.128
   42LIG    OT2  630   9.831   3.971   2.947
   43LIG      N  631   0.942   7.226   1.924
   43LIG     H1  632   0.904   7.315   1.898
   43LIG     H2  633   1.038   7.221   1.895
   43LIG     H3  634   0.890   7.153   1.879
   43LIG     CA  635   0.932   7.209   2.074
   43LIG     HA  636   0.983   7.282   2.119
   43LIG     CB  637   0.787   7.219   2.116
   43LIG    HB1  638   0.734   7.147   2.069
   43LIG    HB2  639   0.750   7.308   2.090
   43LIG     CG  640   0.773   7.201   2.264
   43LIG    OD1  641   0.764   7.072   2.305
   43LIG    OD2  642   0.770   7.296   2.342
   43LIG      C  643   0.990   7.072   2.116
   43LIG    OT1  644   1.039   6.992   2.016
   43LIG    OT2  645   0.989   7.042   2.249
   44LIG      N  646   1.393   9.774   6.991
   44LIG     H1  647   1.335   9.790   7.071
   44LIG     H2  648   1.335   9.757   6.911
   44LIG     H3  649   1.452   9.696   7.008
   44LIG     CA  650   1.479   9.897   6.966
   44LIG     HA  651   1.420   9.976   6.949
   44LIG     CB  652   1.564   9.923   7.088
   44LIG    HB1  653   1.622   9.843   7.106
   44LIG    HB2  654   1.506   9.940   7.167
   44LIG     CG  655   1.652  10.042   7.065
   44LIG    OD1  656   1.770  10.016   7.004
   44LIG    OD2  657   1.620  10.156   7.101
   44LIG      C  658   1.569   9.873   6.842
   44LIG    OT1  659   1.558   9.752   6.778
   44LIG    OT2  660   1.653   9.974   6.806
   45LIG      N  661   0.280   1.494   4.053
   45LIG     H1  662   0.290   1.395   4.064
   45LIG     H2  663   0.343   1.542   4.114
   45LIG     H3  664   0.186   1.521   4.075
   45LIG     CA  665   0.309   1.533   3.909
   45LIG     HA  666   0.403   1.506   3.886
   45LIG     CB  667   0.213   1.460   3.818
   45LIG    HB1  668   0.119   1.484   3.842
   45LIG    HB2  669   0.225   1.361   3.829
   45LIG     CG  670   0.238   1.496   3.675
   45LIG    OD1  671   0.174   1.607   3.632
   45LIG    OD2  672   0.311   1.429   3.601
   45LIG      C  673   0.293   1.686   3.890
   45LIG    OT1  674   0.257   1.759   4.000
   45LIG    OT2  675   0.317   1.736   3.766
   46LIG      N  676   1.451   1.485   6.893
   46LIG     H1  677   1.421   1.460   6.985
   46LIG     H2  678   1.409   1.572   6.867
   46LIG     H3  679   1.424   1.414   6.828
   46LIG     CA  680   1.602   1.500   6.890
   46LIG     HA  681   1.630   1.571   6.955
   46LIG     CB  682   1.665   1.369   6.931
   46LIG    HB1  683   1.636   1.296   6.868
   46LIG    HB2  684   1.636   1.344   7.023
   46LIG     CG  685   1.814   1.379   6.928
   46LIG    OD1  686   1.871   1.354   6.808
   46LIG    OD2  687   1.880   1.407   7.028
   46LIG      C  688   1.649   1.539   6.748
   46LIG    OT1  689   1.553   1.554   6.652
   46LIG    OT2  690   1.783   1.556   6.729
   47LIG      N  691   1.935   0.809   4.366
   47LIG     H1  692   1.985   0.886   4.407
   47LIG     H2  693   1.980   0.782   4.280
   47LIG     H3  694   1.841   0.837   4.347
   47LIG     CA  695   1.934   0.692   4.462
   47LIG     HA  696   2.028   0.664   4.482
   47LIG     CB  697   1.868   0.735   4.591
   47LIG    HB1  698   1.774   0.765   4.572
   47LIG    HB2  699   1.918   0.810   4.631
   47LIG     CG  700   1.863   0.621   4.688
   47LIG    OD1  701   1.757   0.539   4.675
   47LIG    OD2  702   1.950   0.605   4.774
   47LIG      C  703   1.857   0.572   4.400
   47LIG    OT1  704   1.804   0.590   4.275
   47LIG    OT2  705   1.847   0.459   4.475
   48LIG      N  706   4.974   4.138   9.530
   48LIG     H1  707   4.919   4.218   9.504
   48LIG     H2  708   5.007   4.149   9.623
   48LIG     H3  709   5.051   4.129   9.467
   48LIG     CA  710   4.888   4.013   9.521
   48LIG     HA  711   4.810   4.022   9.582
   48LIG     CB  712   4.837   3.999   9.379
   48LIG    HB1  713   4.914   3.992   9.316
   48LIG    HB2  714   4.782   4.078   9.355
   48LIG     CG  715   4.752   3.876   9.366
   48LIG    OD1  716   4.821   3.762   9.339
   48LIG    OD2  717   4.630   3.878   9.378
   48LIG      C  718   4.971   3.888   9.560
   48LIG    OT1  719   5.102   3.909   9.594
   48LIG    OT2  720   4.908   3.768   9.556
   49LIG      N  721   6.069   1.567   6.491
   49LIG     H1  722   6.137   1.525   6.432
   49LIG     H2  723   6.095   1.661   6.511
   49LIG     H3  724   6.062   1.515   6.576
   49LIG     CA  725   5.933   1.565   6.421
   49LIG     HA  726   5.939   1.616   6.336
   49LIG     CB  727   5.896   1.422   6.391
   49LIG    HB1  728   5.892   1.369   6.477
   49LIG    HB2  729   5.964   1.381   6.331
   49LIG     CG  730   5.762   1.416   6.324
   49LIG    OD1  731   5.656   1.412   6.408
   49LIG    OD2  732   5.750   1.413   6.201
   49LIG      C  733   5.826   1.630   6.513
   49LIG    OT1  734   5.867   1.676   6.635
   49LIG    OT2  735   5.699   1.635   6.464
   50LIG      N  736   6.632   0.331   3.175
   50LIG     H1  737   6.543   0.375   3.164
   50LIG     H2  738   6.651   0.318   3.272
   50LIG     H3  739   6.703   0.388   3.134
   50LIG     CA  740   6.631   0.196   3.105
   50LIG     HA  741   6.559   0.139   3.145
   50LIG     CB  742   6.600   0.217   2.958
   50LIG    HB1  743   6.670   0.277   2.918
   50LIG    HB2  744   6.511   0.261   2.948
   50LIG     CG  745   6.599   0.086   2.885
   50LIG    OD1  746   6.720   0.045   2.841
   50LIG    OD2  747   6.496   0.022   2.866
   50LIG      C  748   6.769   0.126   3.120
   50LIG    OT1  749   6.865   0.193   3.191
   50LIG    OT2  750   6.783   0.004   3.063
   51LIG      N  751   8.111   6.714   8.013
   51LIG     H1  752   8.070   6.789   8.065
   51LIG     H2  753   8.210   6.724   8.012
   51LIG     H3  754   8.076   6.716   7.919
   51LIG     CA  755   8.073   6.582   8.078
   51LIG     HA  756   8.107   6.580   8.172
   51LIG     CB  757   7.923   6.569   8.079
   51LIG    HB1  758   7.887   6.574   7.985
   51LIG    HB2  759   7.883   6.644   8.132
   51LIG     CG  760   7.882   6.439   8.141
   51LIG    OD1  761   7.877   6.334   8.056
   51LIG    OD2  762   7.853   6.429   8.261
   51LIG      C  763   8.135   6.464   7.998
   51LIG    OT1  764   8.210   6.496   7.888
   51LIG    OT2  765   8.111   6.338   8.044
   52LIG      N  766   9.696   4.977   7.728
   52LIG     H1  767   9.781   4.930   7.706
   52LIG     H2  768   9.618   4.917   7.709
   52LIG     H3  769   9.688   5.061   7.674
   52LIG     CA  770   9.695   5.013   7.876
   52LIG     HA  771   9.704   4.930   7.931
   52LIG     CB  772   9.814   5.103   7.905
   52LIG    HB1  773   9.808   5.186   7.849
   52LIG    HB2  774   9.898   5.055   7.883
   52LIG     CG  775   9.816   5.142   8.050
   52LIG    OD1  776   9.742   5.251   8.080
   52LIG    OD2  777   9.881   5.080   8.134
   52LIG      C  778   9.564   5.087   7.913
   52LIG    OT1  779   9.473   5.106   7.812
   52LIG    OT2  780   9.548   5.126   8.042
   53LIG      N  781   0.123   2.810   6.610
   53LIG     H1  782   0.146   2.854   6.524
   53LIG     H2  783   0.124   2.877   6.684
   53LIG     H3  784   0.189   2.737   6.629
   53LIG     CA  785  -0.016   2.748   6.601
   53LIG     HA  786  -0.083   2.820   6.581
   53LIG     CB  787  -0.017   2.648   6.488
   53LIG    HB1  788   0.051   2.576   6.506
   53LIG    HB2  789   0.005   2.693   6.402
   53LIG     CG  790  -0.152   2.584   6.477
   53LIG    OD1  791  -0.171   2.476   6.556
   53LIG    OD2  792  -0.239   2.626   6.400
   53LIG      C  793  -0.052   2.679   6.735
   53LIG    OT1  794   0.041   2.683   6.835
   53LIG    OT2  795  -0.175   2.618   6.742
   54LIG      N  796   9.295   6.230   5.443
   54LIG     H1  797   9.353   6.151   5.462
   54LIG     H2  798   9.304   6.256   5.347
   54LIG     H3  799   9.322   6.306   5.502
   54LIG     CA  800   9.150   6.194   5.472
   54LIG     HA  801   9.122   6.118   5.414
   54LIG     CB  802   9.137   6.153   5.617
   54LIG    HB1  803   9.168   6.229   5.676
   54LIG    HB2  804   9.195   6.074   5.635
   54LIG     CG  805   8.995   6.119   5.650
   54LIG    OD1  806   8.918   6.224   5.686
   54LIG    OD2  807   8.953   6.004   5.645
   54LIG      C  808   9.058   6.317   5.444
   54LIG    OT1  809   9.119   6.431   5.399
   54LIG    OT2  810   8.925   6.301   5.465
   55LIG      N  811   0.275   3.842   9.198
   55LIG     H1  812   0.265   3.861   9.296
   55LIG     H2  813   0.243   3.920   9.145
   55LIG     H3  814   0.222   3.760   9.175
   55LIG     CA  815   0.422   3.816   9.166
   55LIG     HA  816   0.475   3.897   9.190
   55LIG     CB  817   0.470   3.699   9.248
   55LIG    HB1  818   0.414   3.618   9.227
   55LIG    HB2  819   0.460   3.719   9.345
   55LIG     CG  820   0.614   3.669   9.218
   55LIG    OD1  821   0.634   3.588   9.112
   55LIG    OD2  822   0.706   3.715   9.286
   55LIG      C  823   0.438   3.785   9.015
   55LIG    OT1  824   0.325   3.786   8.938
   55LIG    OT2  825   0.564   3.760   8.970
   56LIG      N  826   3.424   8.619   1.057
   56LIG     H1  827   3.480   8.695   1.090
   56LIG     H2  828   3.483   8.540   1.038
   56LIG     H3  829   3.377   8.647   0.973
   56LIG     CA  830   3.321   8.582   1.162
   56LIG     HA  831   3.368   8.555   1.246
   56LIG     CB  832   3.234   8.702   1.190
   56LIG    HB1  833   3.189   8.732   1.106
   56LIG    HB2  834   3.291   8.777   1.224
   56LIG     CG  835   3.130   8.669   1.293
   56LIG    OD1  836   3.017   8.615   1.243
   56LIG    OD2  837   3.147   8.691   1.413
   56LIG      C  838   3.233   8.464   1.111
   56LIG    OT1  839   3.261   8.415   0.986
   56LIG    OT2  840   3.136   8.419   1.195
   57LIG      N  841   3.329   0.265   5.833
   57LIG     H1  842   3.302   0.265   5.736
   57LIG     H2  843   3.363   0.175   5.858
   57LIG     H3  844   3.251   0.290   5.890
   57LIG     CA  845   3.440   0.368   5.853
   57LIG     HA  846   3.518   0.344   5.796
   57LIG     CB  847   3.388   0.504   5.812
   57LIG    HB1  848   3.308   0.528   5.868
   57LIG    HB2  849   3.362   0.503   5.716
   57LIG     CG  850   3.494   0.608   5.832
   57LIG    OD1  851   3.499   0.661   5.957
   57LIG    OD2  852   3.570   0.643   5.742
   57LIG      C  853   3.483   0.370   6.002
   57LIG    OT1  854   3.419   0.284   6.087
   57LIG    OT2  855   3.582   0.457   6.036
   58LIG      N  856   0.398   4.789   6.784
   58LIG     H1  857   0.347   4.865   6.743
   58LIG     H2  858   0.403   4.713   6.719
   58LIG     H3  859   0.353   4.759   6.868
   58LIG     CA  860   0.539   4.835   6.818
   58LIG     HA  861   0.585   4.866   6.734
   58LIG     CB  862   0.531   4.951   6.915
   58LIG    HB1  863   0.483   4.922   6.998
   58LIG    HB2  864   0.480   5.026   6.873
   58LIG     CG  865   0.668   4.999   6.951
   58LIG    OD1  866   0.725   4.933   7.054
   58LIG    OD2  867   0.724   5.091   6.892
   58LIG      C  868   0.620   4.719   6.881
   58LIG    OT1  869   0.555   4.599   6.896
   58LIG    OT2  870   0.748   4.745   6.917
   59LIG      N  871   5.373   9.952   0.764
   59LIG     H1  872   5.422   9.936   0.679
   59LIG     H2  873   5.435   9.991   0.832
   59LIG     H3  874   5.336   9.865   0.798
   59LIG     CA  875   5.258  10.048   0.739
   59LIG     HA  876   5.294  10.135   0.704
   59LIG     CB  877   5.166   9.988   0.635
   59LIG    HB1  878   5.131   9.900   0.668
   59LIG    HB2  879   5.216   9.973   0.550
   59LIG     CG  880   5.051  10.080   0.608
   59LIG    OD1  881   4.946  10.065   0.692
   59LIG    OD2  882   5.051  10.162   0.516
   59LIG      C  883   5.180  10.074   0.870
   59LIG    OT1  884   5.224  10.010   0.983
   59LIG    OT2  885   5.074  10.159   0.864
   60LIG      N  886   5.258   7.678   0.375
   60LIG     H1  887   5.214   7.703   0.462
   60LIG     H2  888   5.248   7.752   0.309
   60LIG     H3  889   5.215   7.595   0.340
   60LIG     CA  890   5.405   7.651   0.400
   60LIG     HA  891   5.449   7.733   0.436
   60LIG     CB  892   5.419   7.539   0.501
   60LIG    HB1  893   5.373   7.457   0.466
   60LIG    HB2  894   5.376   7.566   0.587
   60LIG     CG  895   5.563   7.509   0.526
   60LIG    OD1  896   5.619   7.421   0.440
   60LIG    OD2  897   5.626   7.560   0.619
   60LIG      C  898   5.475   7.610   0.267
   60LIG    OT1  899   5.396   7.605   0.155
   60LIG    OT2  900   5.608   7.583   0.272
   61LIG      N  901   1.498   3.604   3.309
   61LIG     H1  902   1.573   3.547   3.275
   61LIG     H2  903   1.499   3.605   3.410
   61LIG     H3  904   1.411   3.567   3.277
   61LIG     CA  905   1.514   3.746   3.258
   61LIG     HA  906   1.601   3.783   3.289
   61LIG     CB  907   1.514   3.743   3.106
   61LIG    HB1  908   1.428   3.703   3.074
   61LIG    HB2  909   1.589   3.687   3.073
   61LIG     CG  910   1.528   3.882   3.051
   61LIG    OD1  911   1.412   3.950   3.038
   61LIG    OD2  912   1.637   3.929   3.020
   61LIG      C  913   1.398   3.835   3.309
   61LIG    OT1  914   1.304   3.775   3.389
   61LIG    OT2  915   1.398   3.966   3.271
   62LIG      N  916   4.256   1.587   9.123
   62LIG     H1  917   4.157   1.580   9.137
   62LIG     H2  918   4.303   1.513   9.171
   62LIG     H3  919   4.288   1.675   9.158
   62LIG     CA  920   4.288   1.579   8.974
   62LIG     HA  921   4.255   1.492   8.938
   62LIG     CB  922   4.216   1.691   8.903
   62LIG    HB1  923   4.246   1.780   8.940
   62LIG    HB2  924   4.118   1.683   8.916
   62LIG     CG  925   4.246   1.687   8.756
   62LIG    OD1  926   4.358   1.752   8.719
   62LIG    OD2  927   4.172   1.630   8.675
   62LIG      C  928   4.441   1.591   8.952
   62LIG    OT1  929   4.519   1.606   9.062
   62LIG    OT2  930   4.485   1.585   8.823
   63LIG      N  931   8.171   3.079   1.447
   63LIG     H1  932   8.096   3.033   1.493
   63LIG     H2  933   8.251   3.080   1.507
   63LIG     H3  934   8.144   3.173   1.426
   63LIG     CA  935   8.205   3.007   1.318
   63LIG     HA  936   8.231   2.913   1.339
   63LIG     CB  937   8.082   3.005   1.229
   63LIG    HB1  938   8.053   3.100   1.210
   63LIG    HB2  939   8.008   2.958   1.276
   63LIG     CG  940   8.112   2.936   1.100
   63LIG    OD1  941   8.165   3.015   1.004
   63LIG    OD2  942   8.089   2.816   1.083
   63LIG      C  943   8.321   3.079   1.245
   63LIG    OT1  944   8.373   3.191   1.306
   63LIG    OT2  945   8.363   3.026   1.127
   64LIG      N  946   9.075   6.333   6.004
   64LIG     H1  947   9.103   6.282   5.923
   64LIG     H2  948   9.078   6.273   6.084
   64LIG     H3  949   8.982   6.368   5.991
   64LIG     CA  950   9.169   6.451   6.025
   64LIG     HA  951   9.262   6.417   6.038
   64LIG     CB  952   9.165   6.540   5.903
   64LIG    HB1  953   9.071   6.572   5.888
   64LIG    HB2  954   9.194   6.489   5.823
   64LIG     CG  955   9.255   6.658   5.922
   64LIG    OD1  956   9.199   6.763   5.985
   64LIG    OD2  957   9.371   6.659   5.881
   64LIG      C  958   9.125   6.531   6.151
   64LIG    OT1  959   9.015   6.486   6.219
   64LIG    OT2  960   9.200   6.640   6.184
   65LIG      N  961   7.834   7.210   2.828
   65LIG     H1  962   7.919   7.159   2.813
   65LIG     H2  963   7.817   7.269   2.749
   65LIG     H3  964   7.843   7.266   2.910
   65LIG     CA  965   7.718   7.114   2.845
   65LIG     HA  966   7.709   7.058   2.764
   65LIG     CB  967   7.746   7.025   2.964
   65LIG    HB1  968   7.758   7.081   3.047
   65LIG    HB2  969   7.830   6.973   2.949
   65LIG     CG  970   7.633   6.929   2.986
   65LIG    OD1  971   7.531   6.977   3.061
   65LIG    OD2  972   7.632   6.816   2.938
   65LIG      C  973   7.587   7.193   2.869
   65LIG    OT1  974   7.595   7.330   2.869
   65LIG    OT2  975   7.473   7.121   2.886
   66LIG      N  976   3.964   9.077   1.621
   66LIG     H1  977   3.944   9.164   1.667
   66LIG     H2  978   3.967   9.093   1.522
   66LIG     H3  979   3.892   9.011   1.642
   66LIG     CA  980   4.098   9.024   1.668
   66LIG     HA  981   4.169   9.090   1.648
   66LIG     CB  982   4.092   9.003   1.818
   66LIG    HB1  983   4.018   8.938   1.840
   66LIG    HB2  984   4.073   9.089   1.863
   66LIG     CG  985   4.222   8.948   1.868
   66LIG    OD1  986   4.233   8.813   1.862
   66LIG    OD2  987   4.311   9.020   1.913
   66LIG      C  988   4.129   8.889   1.597
   66LIG    OT1  989   4.037   8.843   1.508
   66LIG    OT2  990   4.247   8.828   1.629
   67LIG      N  991   9.191   7.639   3.826
   67LIG     H1  992   9.268   7.703   3.825
   67LIG     H2  993   9.113   7.681   3.779
   67LIG     H3  994   9.166   7.619   3.921
   67LIG     CA  995   9.229   7.510   3.756
   67LIG     HA  996   9.255   7.530   3.662
   67LIG     CB  997   9.348   7.449   3.827
   67LIG    HB1  998   9.324   7.431   3.923
   67LIG    HB2  999   9.425   7.513   3.825
   67LIG     CG 1000   9.389   7.321   3.762
   67LIG    OD1 1001   9.322   7.212   3.805
   67LIG    OD2 1002   9.476   7.316   3.675
   67LIG      C 1003   9.110   7.411   3.758
   67LIG    OT1 1004   8.995   7.452   3.819
   67LIG    OT2 1005   9.129   7.290   3.699
   68LIG      N 1006   0.629   2.160   3.362
   68LIG     H1 1007   0.604   2.079   3.415
   68LIG     H2 1008   0.605   2.145   3.266
   68LIG     H3 1009   0.727   2.177   3.371
   68LIG     CA 1010   0.553   2.281   3.415
   68LIG     HA 1011   0.455   2.264   3.407
   68LIG     CB 1012   0.588   2.301   3.561
   68LIG    HB1 1013   0.687   2.315   3.569
   68LIG    HB2 1014   0.563   2.220   3.613
   68LIG     CG 1015   0.517   2.420   3.616
   68LIG    OD1 1016   0.579   2.538   3.597
   68LIG    OD2 1017   0.409   2.411   3.675
   68LIG      C 1018   0.591   2.407   3.333
   68LIG    OT1 1019   0.682   2.391   3.232
   68LIG    OT2 1020   0.531   2.524   3.369
   69LIG      N 1021   6.597   5.522   9.167
   69LIG     H1 1022   6.533   5.452   9.199
   69LIG     H2 1023   6.612   5.510   9.069
   69LIG     H3 1024   6.684   5.512   9.216
   69LIG     CA 1025   6.540   5.660   9.193
   69LIG     HA 1026   6.453   5.670   9.145
   69LIG     CB 1027   6.517   5.676   9.342
   69LIG    HB1 1028   6.603   5.663   9.391
   69LIG    HB2 1029   6.452   5.607   9.373
   69LIG     CG 1030   6.462   5.812   9.372
   69LIG    OD1 1031   6.555   5.908   9.389
   69LIG    OD2 1032   6.341   5.834   9.381
   69LIG      C 1033   6.640   5.769   9.144
   69LIG    OT1 1034   6.757   5.725   9.087
   69LIG    OT2 1035   6.603   5.899   9.161
   70LIG      N 1036   4.715  10.019   7.938
   70LIG     H1 1037   4.724   9.920   7.946
   70LIG     H2 1038   4.742  10.048   7.846
   70LIG     H3 1039   4.773  10.063   8.006
   70LIG     CA 1040   4.570  10.058   7.963
   70LIG     HA 1041   4.511  10.013   7.896
   70LIG     CB 1042   4.530  10.012   8.101
   70LIG    HB1 1043   4.590  10.054   8.170
   70LIG    HB2 1044   4.539   9.913   8.108
   70LIG     CG 1045   4.388  10.050   8.130
   70LIG    OD1 1046   4.372  10.174   8.180
   70LIG    OD2 1047   4.294   9.973   8.110
   70LIG      C 1048   4.554  10.212   7.952
   70LIG    OT1 1049   4.666  10.285   7.923
   70LIG    OT2 1050   4.429  10.263   7.972
   71LIG      N 1051   9.475   8.593   3.774
   71LIG     H1 1052   9.518   8.674   3.734
   71LIG     H2 1053   9.415   8.550   3.706
   71LIG     H3 1054   9.422   8.619   3.854
   71LIG     CA 1055   9.583   8.494   3.816
   71LIG     HA 1056   9.637   8.468   3.736
   71LIG     CB 1057   9.674   8.561   3.916
   71LIG    HB1 1058   9.620   8.590   3.996
   71LIG    HB2 1059   9.717   8.641   3.875
   71LIG     CG 1060   9.781   8.466   3.961
   71LIG    OD1 1061   9.746   8.386   4.065
   71LIG    OD2 1062   9.892   8.462   3.909
   71LIG      C 1063   9.518   8.368   3.879
   71LIG    OT1 1064   9.381   8.365   3.886
   71LIG    OT2 1065   9.602   8.270   3.922
   72LIG      N 1066   0.160   8.180   7.487
   72LIG     H1 1067   0.070   8.136   7.475
   72LIG     H2 1068   0.214   8.167   7.404
   72LIG     H3 1069   0.207   8.138   7.565
   72LIG     CA 1070   0.140   8.328   7.513
   72LIG     HA 1071   0.092   8.369   7.436
   72LIG     CB 1072   0.056   8.345   7.638
   72LIG    HB1 1073   0.102   8.301   7.716
   72LIG    HB2 1074  -0.033   8.302   7.625
   72LIG     CG 1075   0.036   8.490   7.668
   72LIG    OD1 1076   0.134   8.547   7.742
   72LIG    OD2 1077  -0.063   8.552   7.630
   72LIG      C 1078   0.278   8.397   7.533
   72LIG    OT1 1079   0.389   8.318   7.523
   72LIG    OT2 1080   0.277   8.531   7.557
   73LIG      N 1081   8.601   8.184   9.549
   73LIG     H1 1082   8.541   8.238   9.609
   73LIG     H2 1083   8.675   8.145   9.604
   73LIG     H3 1084   8.638   8.243   9.478
   73LIG     CA 1085   8.520   8.072   9.485
   73LIG     HA 1086   8.482   8.014   9.556
   73LIG     CB 1087   8.407   8.133   9.405
   73LIG    HB1 1088   8.445   8.194   9.335
   73LIG    HB2 1089   8.348   8.186   9.465
   73LIG     CG 1090   8.327   8.025   9.339
   73LIG    OD1 1091   8.374   7.985   9.219
   73LIG    OD2 1092   8.225   7.978   9.390
   73LIG      C 1093   8.612   7.988   9.392
   73LIG    OT1 1094   8.743   8.025   9.383
   73LIG    OT2 1095   8.554   7.883   9.327
   74LIG      N 1096   0.534   3.300   6.369
   74LIG     H1 1097   0.486   3.373   6.320
   74LIG     H2 1098   0.480   3.216   6.363
   74LIG     H3 1099   0.546   3.326   6.465
   74LIG     CA 1100   0.670   3.277   6.305
   74LIG     HA 1101   0.658   3.252   6.209
   74LIG     CB 1102   0.750   3.405   6.313
   74LIG    HB1 1103   0.760   3.432   6.409
   74LIG    HB2 1104   0.702   3.477   6.263
   74LIG     CG 1105   0.885   3.386   6.252
   74LIG    OD1 1106   0.979   3.337   6.336
   74LIG    OD2 1107   0.909   3.413   6.134
   74LIG      C 1108   0.745   3.163   6.379
   74LIG    OT1 1109   0.680   3.105   6.485
   74LIG    OT2 1110   0.869   3.131   6.334
   75LIG      N 1111   5.580   7.985   9.366
   75LIG     H1 1112   5.638   8.020   9.292
   75LIG     H2 1113   5.593   8.041   9.447
   75LIG     H3 1114   5.606   7.890   9.386
   75LIG     CA 1115   5.435   7.988   9.323
   75LIG     HA 1116   5.409   8.082   9.302
   75LIG     CB 1117   5.418   7.904   9.198
   75LIG    HB1 1118   5.447   7.810   9.218
   75LIG    HB2 1119   5.475   7.941   9.125
   75LIG     CG 1120   5.275   7.904   9.154
   75LIG    OD1 1121   5.197   7.810   9.213
   75LIG    OD2 1122   5.232   7.983   9.070
   75LIG      C 1123   5.345   7.933   9.437
   75LIG    OT1 1124   5.407   7.892   9.551
   75LIG    OT2 1125   5.210   7.930   9.413
   76LIG      N 1126   0.620   3.780   5.026
   76LIG     H1 1127   0.521   3.789   5.022
   76LIG     H2 1128   0.652   3.802   5.119
   76LIG     H3 1129   0.662   3.843   4.960
   76LIG     CA 1130   0.660   3.638   4.991
   76LIG     HA 1131   0.618   3.575   5.056
   76LIG     CB 1132   0.610   3.606   4.852
   76LIG    HB1 1133   0.650   3.671   4.786
   76LIG    HB2 1134   0.511   3.614   4.849
   76LIG     CG 1135   0.649   3.467   4.813
   76LIG    OD1 1136   0.771   3.455   4.758
   76LIG    OD2 1137   0.573   3.371   4.829
   76LIG      C 1138   0.814   3.623   4.997
   76LIG    OT1 1139   0.887   3.734   5.030
   76LIG    OT2 1140   0.866   3.500   4.967
   77LIG      N 1141   8.565   5.686   3.885
   77LIG     H1 1142   8.650   5.712   3.932
   77LIG     H2 1143   8.528   5.602   3.926
   77LIG     H3 1144   8.584   5.670   3.788
   77LIG     CA 1145   8.464   5.798   3.898
   77LIG     HA 1146   8.445   5.815   3.995
   77LIG     CB 1147   8.522   5.924   3.837
   77LIG    HB1 1148   8.543   5.907   3.741
   77LIG    HB2 1149   8.605   5.949   3.885
   77LIG     CG 1150   8.424   6.037   3.847
   77LIG    OD1 1151   8.334   6.043   3.746
   77LIG    OD2 1152   8.425   6.117   3.940
   77LIG      C 1153   8.332   5.760   3.825
   77LIG    OT1 1154   8.328   5.637   3.764
   77LIG    OT2 1155   8.231   5.851   3.828
   78LIG      N 1156   4.097   7.964  10.000
   78LIG     H1 1157   4.005   7.963  10.039
   78LIG     H2 1158   4.164   7.981  10.072
   78LIG     H3 1159   4.103   8.037   9.931
   78LIG     CA 1160   4.126   7.831   9.933
   78LIG     HA 1161   4.120   7.758  10.001
   78LIG     CB 1162   4.023   7.806   9.825
   78LIG    HB1 1163   4.027   7.881   9.758
   78LIG    HB2 1164   3.932   7.804   9.865
   78LIG     CG 1165   4.049   7.676   9.756
   78LIG    OD1 1166   4.137   7.683   9.654
   78LIG    OD2 1167   3.994   7.571   9.790
   78LIG      C 1168   4.268   7.832   9.871
   78LIG    OT1 1169   4.342   7.947   9.885
   78LIG    OT2 1170   4.309   7.719   9.807
   79LIG      N 1171   9.358   4.032   1.091
   79LIG     H1 1172   9.357   3.991   1.182
   79LIG     H2 1173   9.445   4.010   1.045
   79LIG     H3 1174   9.348   4.132   1.099
   79LIG     CA 1175   9.242   3.977   1.009
   79LIG     HA 1176   9.252   3.878   1.002
   79LIG     CB 1177   9.113   4.009   1.080
   79LIG    HB1 1178   9.104   4.109   1.090
   79LIG    HB2 1179   9.112   3.968   1.170
   79LIG     CG 1180   8.996   3.958   1.002
   79LIG    OD1 1181   8.950   4.042   0.906
   79LIG    OD2 1182   8.945   3.848   1.023
   79LIG      C 1183   9.243   4.040   0.867
   79LIG    OT1 1184   9.341   4.131   0.839
   79LIG    OT2 1185   9.144   4.001   0.782
   80LIG      N 1186   1.710   6.032   6.276
   80LIG     H1 1187   1.708   6.062   6.181
   80LIG     H2 1188   1.684   5.935   6.280
   80LIG     H3 1189   1.647   6.087   6.330
   80LIG     CA 1190   1.851   6.048   6.331
   80LIG     HA 1191   1.914   5.994   6.277
   80LIG     CB 1192   1.890   6.194   6.322
   80LIG    HB1 1193   1.825   6.250   6.374
   80LIG    HB2 1194   1.889   6.223   6.227
   80LIG     CG 1195   2.028   6.214   6.377
   80LIG    OD1 1196   2.033   6.234   6.511
   80LIG    OD2 1197   2.128   6.214   6.306
   80LIG      C 1198   1.855   6.001   6.479
   80LIG    OT1 1199   1.738   5.955   6.534
   80LIG    OT2 1200   1.975   6.010   6.543
   81LIG      N 1201   0.411   0.572   5.263
   81LIG     H1 1202   0.344   0.556   5.335
   81LIG     H2 1203   0.402   0.666   5.229
   81LIG     H3 1204   0.397   0.507   5.189
   81LIG     CA 1205   0.551   0.554   5.320
   81LIG     HA 1206   0.566   0.618   5.394
   81LIG     CB 1207   0.564   0.412   5.372
   81LIG    HB1 1208   0.547   0.347   5.298
   81LIG    HB2 1209   0.497   0.397   5.445
   81LIG     CG 1210   0.702   0.389   5.427
   81LIG    OD1 1211   0.793   0.350   5.336
   81LIG    OD2 1212   0.728   0.404   5.547
   81LIG      C 1213   0.657   0.578   5.208
   81LIG    OT1 1214   0.610   0.611   5.084
   81LIG    OT2 1215   0.788   0.565   5.243
   82LIG      N 1216   0.234   3.326   8.747
   82LIG     H1 1217   0.141   3.344   8.715
   82LIG     H2 1218   0.234   3.314   8.846
   82LIG     H3 1219   0.293   3.404   8.723
   82LIG     CA 1220   0.288   3.201   8.680
   82LIG     HA 1221   0.229   3.123   8.703
   82LIG     CB 1222   0.287   3.221   8.531
   82LIG    HB1 1223   0.344   3.300   8.507
   82LIG    HB2 1224   0.194   3.237   8.499
   82LIG     CG 1225   0.340   3.099   8.461
   82LIG    OD1 1226   0.475   3.097   8.447
   82LIG    OD2 1227   0.267   3.010   8.419
   82LIG      C 1228   0.433   3.173   8.729
   82LIG    OT1 1229   0.487   3.260   8.819
   82LIG    OT2 1230   0.495   3.063   8.678
   83LIG      N 1231   3.214   0.263   4.826
   83LIG     H1 1232   3.152   0.322   4.877
   83LIG     H2 1233   3.257   0.198   4.889
   83LIG     H3 1234   3.284   0.319   4.782
   83LIG     CA 1235   3.136   0.187   4.720
   83LIG     HA 1236   3.065   0.132   4.763
   83LIG     CB 1237   3.071   0.287   4.627
   83LIG    HB1 1238   3.141   0.345   4.585
   83LIG    HB2 1239   3.008   0.345   4.678
   83LIG     CG 1240   2.994   0.217   4.519
   83LIG    OD1 1241   3.067   0.182   4.411
   83LIG    OD2 1242   2.874   0.192   4.529
   83LIG      C 1243   3.232   0.095   4.639
   83LIG    OT1 1244   3.364   0.096   4.675
   83LIG    OT2 1245   3.177   0.021   4.539
   84LIG      N 1246   1.002   0.372   9.720
   84LIG     H1 1247   1.099   0.384   9.696
   84LIG     H2 1248   0.995   0.315   9.802
   84LIG     H3 1249   0.955   0.327   9.644
   84LIG     CA 1250   0.939   0.507   9.746
   84LIG     HA 1251   0.986   0.553   9.821
   84LIG     CB 1252   0.952   0.592   9.621
   84LIG    HB1 1253   0.907   0.546   9.544
   84LIG    HB2 1254   1.048   0.605   9.599
   84LIG     CG 1255   0.889   0.726   9.642
   84LIG    OD1 1256   0.757   0.732   9.617
   84LIG    OD2 1257   0.954   0.825   9.679
   84LIG      C 1258   0.789   0.490   9.782
   84LIG    OT1 1259   0.740   0.362   9.785
   84LIG    OT2 1260   0.717   0.603   9.808
   85LIG      N 1261   8.758   9.724   5.339
   85LIG     H1 1262   8.841   9.748   5.289
   85LIG     H2 1263   8.689   9.795   5.323
   85LIG     H3 1264   8.778   9.718   5.437
   85LIG     CA 1265   8.706   9.590   5.290
   85LIG     HA 1266   8.686   9.595   5.192
   85LIG     CB 1267   8.812   9.485   5.314
   85LIG    HB1 1268   8.834   9.481   5.411
   85LIG    HB2 1269   8.894   9.509   5.263
   85LIG     CG 1270   8.764   9.351   5.268
   85LIG    OD1 1271   8.693   9.282   5.360
   85LIG    OD2 1272   8.788   9.307   5.156
   85LIG      C 1273   8.576   9.552   5.367
   85LIG    OT1 1274   8.531   9.641   5.461
   85LIG    OT2 1275   8.517   9.434   5.334
   86LIG      N 1276   0.199   1.747   7.561
   86LIG     H1 1277   0.233   1.654   7.551
   86LIG     H2 1278   0.152   1.775   7.476
   86LIG     H3 1279   0.275   1.809   7.579
   86LIG     CA 1280   0.101   1.753   7.677
   86LIG     HA 1281   0.025   1.691   7.659
   86LIG     CB 1282   0.172   1.709   7.803
   86LIG    HB1 1283   0.250   1.770   7.820
   86LIG    HB2 1284   0.205   1.616   7.793
   86LIG     CG 1285   0.079   1.715   7.920
   86LIG    OD1 1286   0.071   1.836   7.981
   86LIG    OD2 1287   0.015   1.617   7.959
   86LIG      C 1288   0.047   1.898   7.694
   86LIG    OT1 1289   0.093   1.992   7.606
   86LIG    OT2 1290  -0.043   1.919   7.794
   87LIG      N 1291   3.998   2.395   9.123
   87LIG     H1 1292   3.976   2.491   9.143
   87LIG     H2 1293   3.993   2.379   9.024
   87LIG     H3 1294   3.934   2.336   9.171
   87LIG     CA 1295   4.139   2.365   9.171
   87LIG     HA 1296   4.204   2.425   9.125
   87LIG     CB 1297   4.147   2.392   9.320
   87LIG    HB1 1298   4.080   2.334   9.368
   87LIG    HB2 1299   4.125   2.487   9.339
   87LIG     CG 1300   4.284   2.362   9.372
   87LIG    OD1 1301   4.305   2.233   9.406
   87LIG    OD2 1302   4.371   2.448   9.383
   87LIG      C 1303   4.175   2.217   9.142
   87LIG    OT1 1304   4.080   2.141   9.081
   87LIG    OT2 1305   4.299   2.175   9.180
   88LIG      N 1306   0.642   6.329   4.264
   88LIG     H1 1307   0.555   6.379   4.270
   88LIG     H2 1308   0.677   6.312   4.357
   88LIG     H3 1309   0.708   6.384   4.213
   88LIG     CA 1310   0.619   6.197   4.193
   88LIG     HA 1311   0.553   6.143   4.243
   88LIG     CB 1312   0.566   6.225   4.054
   88LIG    HB1 1313   0.631   6.282   4.004
   88LIG    HB2 1314   0.479   6.274   4.061
   88LIG     CG 1315   0.544   6.097   3.980
   88LIG    OD1 1316   0.652   6.049   3.915
   88LIG    OD2 1317   0.435   6.039   3.978
   88LIG      C 1318   0.753   6.119   4.183
   88LIG    OT1 1319   0.864   6.178   4.237
   88LIG    OT2 1320   0.750   5.997   4.121
   89LIG      N 1321   0.611   8.477   1.793
   89LIG     H1 1322   0.538   8.451   1.857
   89LIG     H2 1323   0.580   8.464   1.699
   89LIG     H3 1324   0.692   8.421   1.811
   89LIG     CA 1325   0.646   8.623   1.815
   89LIG     HA 1326   0.566   8.680   1.798
   89LIG     CB 1327   0.691   8.642   1.958
   89LIG    HB1 1328   0.771   8.584   1.976
   89LIG    HB2 1329   0.618   8.617   2.020
   89LIG     CG 1330   0.729   8.785   1.982
   89LIG    OD1 1331   0.856   8.817   1.951
   89LIG    OD2 1332   0.649   8.867   2.028
   89LIG      C 1333   0.760   8.665   1.718
   89LIG    OT1 1334   0.808   8.569   1.633
   89LIG    OT2 1335   0.803   8.794   1.725
   90LIG      N 1336   3.364   0.707   2.201
   90LIG     H1 1337   3.462   0.727   2.207
   90LIG     H2 1338   3.339   0.690   2.105
   90LIG     H3 1339   3.312   0.785   2.236
   90LIG     CA 1340   3.331   0.584   2.284
   90LIG     HA 1341   3.383   0.506   2.250
   90LIG     CB 1342   3.370   0.611   2.428
   90LIG    HB1 1343   3.320   0.691   2.462
   90LIG    HB2 1344   3.468   0.629   2.433
   90LIG     CG 1345   3.338   0.493   2.514
   90LIG    OD1 1346   3.211   0.490   2.562
   90LIG    OD2 1347   3.420   0.405   2.539
   90LIG      C 1348   3.179   0.554   2.276
   90LIG    OT1 1349   3.103   0.637   2.199
   90LIG    OT2 1350   3.133   0.446   2.346
   91LIG      N 1351   1.687   5.182   7.664
   91LIG     H1 1352   1.622   5.166   7.738
   91LIG     H2 1353   1.769   5.226   7.701
   91LIG     H3 1354   1.645   5.241   7.595
   91LIG     CA 1355   1.725   5.050   7.600
   91LIG     HA 1356   1.766   4.990   7.668
   91LIG     CB 1357   1.599   4.984   7.546
   91LIG    HB1 1358   1.556   5.045   7.479
   91LIG    HB2 1359   1.536   4.967   7.621
   91LIG     CG 1360   1.633   4.854   7.480
   91LIG    OD1 1361   1.668   4.863   7.350
   91LIG    OD2 1362   1.627   4.746   7.540
   91LIG      C 1363   1.825   5.074   7.484
   91LIG    OT1 1364   1.863   5.203   7.459
   91LIG    OT2 1365   1.869   4.964   7.416
   92LIG      N 1366   8.207   6.887   3.979
   92LIG     H1 1367   8.120   6.929   4.004
   92LIG     H2 1368   8.224   6.903   3.881
   92LIG     H3 1369   8.203   6.789   3.997
   92LIG     CA 1370   8.319   6.949   4.061
   92LIG     HA 1371   8.322   7.047   4.044
   92LIG     CB 1372   8.291   6.925   4.208
   92LIG    HB1 1373   8.284   6.827   4.225
   92LIG    HB2 1374   8.204   6.968   4.232
   92LIG     CG 1375   8.400   6.984   4.292
   92LIG    OD1 1376   8.506   6.902   4.312
   92LIG    OD2 1377   8.393   7.097   4.340
   92LIG      C 1378   8.455   6.884   4.022
   92LIG    OT1 1379   8.453   6.788   3.926
   92LIG    OT2 1380   8.565   6.929   4.088
   93LIG      N 1381   9.883   6.360   6.910
   93LIG     H1 1382   9.975   6.388   6.939
   93LIG     H2 1383   9.881   6.261   6.896
   93LIG     H3 1384   9.860   6.406   6.824
   93LIG     CA 1385   9.782   6.398   7.017
   93LIG     HA 1386   9.806   6.352   7.102
   93LIG     CB 1387   9.787   6.547   7.037
   93LIG    HB1 1388   9.766   6.594   6.951
   93LIG    HB2 1389   9.878   6.574   7.067
   93LIG     CG 1390   9.687   6.589   7.141
   93LIG    OD1 1391   9.563   6.612   7.094
   93LIG    OD2 1392   9.717   6.602   7.260
   93LIG      C 1393   9.640   6.355   6.972
   93LIG    OT1 1394   9.628   6.293   6.851
   93LIG    OT2 1395   9.537   6.383   7.058
   94LIG      N 1396   1.636   1.253   8.203
   94LIG     H1 1397   1.668   1.271   8.296
   94LIG     H2 1398   1.668   1.326   8.142
   94LIG     H3 1399   1.536   1.250   8.203
   94LIG     CA 1400   1.691   1.119   8.156
   94LIG     HA 1401   1.791   1.122   8.157
   94LIG     CB 1402   1.643   1.011   8.250
   94LIG    HB1 1403   1.543   1.009   8.251
   94LIG    HB2 1404   1.676   1.029   8.342
   94LIG     CG 1405   1.694   0.877   8.205
   94LIG    OD1 1406   1.616   0.815   8.114
   94LIG    OD2 1407   1.798   0.828   8.249
   94LIG      C 1408   1.641   1.090   8.012
   94LIG    OT1 1409   1.561   1.184   7.953
   94LIG    OT2 1410   1.682   0.973   7.955
   95LIG      N 1411   2.537   8.906   3.997
   95LIG     H1 1412   2.437   8.906   4.003
   95LIG     H2 1413   2.574   8.975   4.059
   95LIG     H3 1414   2.564   8.927   3.903
   95LIG     CA 1415   2.589   8.769   4.034
   95LIG     HA 1416   2.562   8.747   4.128
   95LIG     CB 1417   2.530   8.666   3.940
   95LIG    HB1 1418   2.555   8.689   3.846
   95LIG    HB2 1419   2.431   8.666   3.948
   95LIG     CG 1420   2.581   8.529   3.973
   95LIG    OD1 1421   2.699   8.497   3.915
   95LIG    OD2 1422   2.520   8.452   4.047
   95LIG      C 1423   2.744   8.767   4.024
   95LIG    OT1 1424   2.806   8.882   3.985
   95LIG    OT2 1425   2.807   8.650   4.055
   96LIG      N 1426   5.413   0.007   6.621
   96LIG     H1 1427   5.320   0.008   6.659
   96LIG     H2 1428   5.409   0.002   6.521
   96LIG     H3 1429   5.464  -0.071   6.657
   96LIG     CA 1430   5.485   0.135   6.662
   96LIG     HA 1431   5.434   0.214   6.627
   96LIG     CB 1432   5.489   0.143   6.813
   96LIG    HB1 1433   5.537   0.063   6.849
   96LIG    HB2 1434   5.396   0.144   6.849
   96LIG     CG 1435   5.560   0.267   6.857
   96LIG    OD1 1436   5.695   0.256   6.866
   96LIG    OD2 1437   5.501   0.372   6.883
   96LIG      C 1438   5.629   0.136   6.604
   96LIG    OT1 1439   5.667   0.027   6.531
   96LIG    OT2 1440   5.706   0.244   6.632
   97LIG      N 1441   1.485   2.373   5.228
   97LIG     H1 1442   1.580   2.354   5.255
   97LIG     H2 1443   1.450   2.296   5.175
   97LIG     H3 1444   1.483   2.456   5.172
   97LIG     CA 1445   1.400   2.394   5.352
   97LIG     HA 1446   1.402   2.311   5.408
   97LIG     CB 1447   1.455   2.509   5.432
   97LIG    HB1 1448   1.456   2.592   5.375
   97LIG    HB2 1449   1.549   2.489   5.459
   97LIG     CG 1450   1.373   2.533   5.554
   97LIG    OD1 1451   1.266   2.614   5.535
   97LIG    OD2 1452   1.400   2.484   5.663
   97LIG      C 1453   1.253   2.424   5.311
   97LIG    OT1 1454   1.225   2.427   5.177
   97LIG    OT2 1455   1.163   2.444   5.411
   98LIG      N 1456   8.208   9.206   2.441
   98LIG     H1 1457   8.210   9.184   2.344
   98LIG     H2 1458   8.223   9.304   2.455
   98LIG     H3 1459   8.279   9.154   2.488
   98LIG     CA 1460   8.073   9.168   2.499
   98LIG     HA 1461   8.001   9.219   2.452
   98LIG     CB 1462   8.050   9.020   2.477
   98LIG    HB1 1463   8.123   8.967   2.522
   98LIG    HB2 1464   8.051   8.999   2.380
   98LIG     CG 1465   7.918   8.978   2.534
   98LIG    OD1 1466   7.921   8.945   2.665
   98LIG    OD2 1467   7.816   8.973   2.466
   98LIG      C 1468   8.069   9.200   2.651
   98LIG    OT1 1469   8.181   9.254   2.706
   98LIG    OT2 1470   7.953   9.171   2.717
   99LIG      N 1471   4.083   0.399   3.814
   99LIG     H1 1472   4.035   0.354   3.889
   99LIG     H2 1473   4.042   0.370   3.727
   99LIG     H3 1474   4.180   0.375   3.816
   99LIG     CA 1475   4.069   0.550   3.828
   99LIG     HA 1476   3.972   0.575   3.826
   99LIG     CB 1477   4.129   0.592   3.960
   99LIG    HB1 1478   4.226   0.565   3.963
   99LIG    HB2 1479   4.081   0.548   4.035
   99LIG     CG 1480   4.119   0.741   3.977
   99LIG    OD1 1481   4.220   0.811   3.922
   99LIG    OD2 1482   4.025   0.794   4.036
   99LIG      C 1483   4.143   0.621   3.711
   99LIG    OT1 1484   4.205   0.541   3.619
   99LIG    OT2 1485   4.139   0.757   3.709
  100LIG      N 1486   3.576   9.162   8.856
  100LIG     H1 1487   3.583   9.110   8.941
  100LIG     H2 1488   3.567   9.100   8.778
  100LIG     H3 1489   3.657   9.219   8.845
  100LIG     CA 1490   3.453   9.252   8.862
  100LIG     HA 1491   3.371   9.196   8.873
  100LIG     CB 1492   3.466   9.345   8.980
  100LIG    HB1 1493   3.550   9.400   8.971
  100LIG    HB2 1494   3.472   9.292   9.064
  100LIG     CG 1495   3.348   9.436   8.989
  100LIG    OD1 1496   3.358   9.549   8.915
  100LIG    OD2 1497   3.249   9.411   9.058
  100LIG      C 1498   3.441   9.335   8.731
  100LIG    OT1 1499   3.538   9.315   8.636
  100LIG    OT2 1500   3.336   9.420   8.721
  101LIG      N 1501   4.789   8.194   1.620
  101LIG     H1 1502   4.692   8.177   1.604
  101LIG     H2 1503   4.822   8.131   1.691
  101LIG     H3 1504   4.801   8.289   1.651
  101LIG     CA 1505   4.867   8.173   1.492
  101LIG     HA 1506   4.854   8.079   1.460
  101LIG     CB 1507   4.814   8.267   1.386
  101LIG    HB1 1508   4.824   8.362   1.418
  101LIG    HB2 1509   4.718   8.249   1.369
  101LIG     CG 1510   4.890   8.250   1.258
  101LIG    OD1 1511   5.003   8.323   1.249
  101LIG    OD2 1512   4.851   8.176   1.168
  101LIG      C 1513   5.018   8.200   1.516
  101LIG    OT1 1514   5.055   8.236   1.643
  101LIG    OT2 1515   5.102   8.184   1.410
  102LIG      N 1516   1.771   7.821   0.976
  102LIG     H1 1517   1.759   7.838   0.878
  102LIG     H2 1518   1.723   7.738   1.002
  102LIG     H3 1519   1.734   7.899   1.028
  102LIG     CA 1520   1.919   7.807   1.008
  102LIG     HA 1521   1.957   7.730   0.957
  102LIG     CB 1522   1.991   7.933   0.967
  102LIG    HB1 1523   1.951   8.012   1.016
  102LIG    HB2 1524   1.979   7.948   0.869
  102LIG     CG 1525   2.137   7.923   0.998
  102LIG    OD1 1526   2.170   7.960   1.124
  102LIG    OD2 1527   2.219   7.886   0.916
  102LIG      C 1528   1.938   7.782   1.160
  102LIG    OT1 1529   1.825   7.778   1.238
  102LIG    OT2 1530   2.066   7.767   1.205
  103LIG      N 1531   6.978   9.721   9.844
  103LIG     H1 1532   6.935   9.783   9.778
  103LIG     H2 1533   6.980   9.763   9.934
  103LIG     H3 1534   7.072   9.700   9.814
  103LIG     CA 1535   6.899   9.591   9.851
  103LIG     HA 1536   6.806   9.611   9.880
  103LIG     CB 1537   6.895   9.528   9.713
  103LIG    HB1 1538   6.989   9.510   9.682
  103LIG    HB2 1539   6.852   9.591   9.649
  103LIG     CG 1540   6.819   9.400   9.716
  103LIG    OD1 1541   6.892   9.291   9.750
  103LIG    OD2 1542   6.699   9.393   9.689
  103LIG      C 1543   6.965   9.494   9.952
  103LIG    OT1 1544   7.078   9.537  10.015
  103LIG    OT2 1545   6.905   9.372   9.969
  104LIG      N 1546   9.310   3.437   3.630
  104LIG     H1 1547   9.405   3.463   3.646
  104LIG     H2 1548   9.263   3.509   3.578
  104LIG     H3 1549   9.264   3.424   3.718
  104LIG     CA 1550   9.304   3.307   3.552
  104LIG     HA 1551   9.351   3.319   3.464
  104LIG     CB 1552   9.376   3.199   3.631
  104LIG    HB1 1553   9.332   3.188   3.720
  104LIG    HB2 1554   9.471   3.225   3.645
  104LIG     CG 1555   9.372   3.069   3.557
  104LIG    OD1 1556   9.261   2.994   3.580
  104LIG    OD2 1557   9.463   3.032   3.483
  104LIG      C 1558   9.157   3.265   3.528
  104LIG    OT1 1559   9.060   3.347   3.578
  104LIG    OT2 1560   9.135   3.150   3.458
  105LIG      N 1561   6.380   0.585   5.398
  105LIG     H1 1562   6.325   0.669   5.398
  105LIG     H2 1563   6.369   0.537   5.311
  105LIG     H3 1564   6.352   0.526   5.474
  105LIG     CA 1565   6.527   0.623   5.417
  105LIG     HA 1566   6.556   0.682   5.343
  105LIG     CB 1567   6.542   0.697   5.548
  105LIG    HB1 1568   6.510   0.638   5.624
  105LIG    HB2 1569   6.487   0.780   5.546
  105LIG     CG 1570   6.685   0.734   5.571
  105LIG    OD1 1571   6.759   0.638   5.631
  105LIG    OD2 1572   6.731   0.843   5.539
  105LIG      C 1573   6.614   0.494   5.419
  105LIG    OT1 1574   6.550   0.375   5.403
  105LIG    OT2 1575   6.748   0.511   5.435
  106LIG      N 1576   5.398   9.826   4.545
  106LIG     H1 1577   5.347   9.741   4.528
  106LIG     H2 1578   5.480   9.806   4.599
  106LIG     H3 1579   5.340   9.890   4.595
  106LIG     CA 1580   5.438   9.888   4.412
  106LIG     HA 1581   5.496   9.824   4.362
  106LIG     CB 1582   5.314   9.917   4.332
  106LIG    HB1 1583   5.254   9.979   4.383
  106LIG    HB2 1584   5.264   9.832   4.314
  106LIG     CG 1585   5.349   9.980   4.201
  106LIG    OD1 1586   5.363  10.114   4.204
  106LIG    OD2 1587   5.364   9.914   4.098
  106LIG      C 1588   5.517  10.020   4.437
  106LIG    OT1 1589   5.536  10.057   4.568
  106LIG    OT2 1590   5.560  10.088   4.328
  107LIG      N 1591   8.420   3.046   2.042
  107LIG     H1 1592   8.443   3.139   2.013
  107LIG     H2 1593   8.402   3.044   2.140
  107LIG     H3 1594   8.496   2.985   2.020
  107LIG     CA 1595   8.296   2.998   1.967
  107LIG     HA 1596   8.220   3.059   1.988
  107LIG     CB 1597   8.324   3.003   1.819
  107LIG    HB1 1598   8.403   2.944   1.798
  107LIG    HB2 1599   8.346   3.096   1.791
  107LIG     CG 1600   8.205   2.955   1.742
  107LIG    OD1 1601   8.198   2.822   1.724
  107LIG    OD2 1602   8.120   3.033   1.697
  107LIG      C 1603   8.261   2.854   2.010
  107LIG    OT1 1604   8.341   2.794   2.103
  107LIG    OT2 1605   8.151   2.797   1.952
  108LIG      N 1606   6.053   1.114  10.010
  108LIG     H1 1607   6.046   1.016  10.028
  108LIG     H2 1608   6.117   1.155  10.075
  108LIG     H3 1609   5.963   1.156  10.020
  108LIG     CA 1610   6.102   1.137   9.868
  108LIG     HA 1611   6.192   1.094   9.857
  108LIG     CB 1612   6.005   1.073   9.771
  108LIG    HB1 1613   5.914   1.113   9.784
  108LIG    HB2 1614   5.999   0.975   9.789
  108LIG     CG 1615   6.050   1.094   9.630
  108LIG    OD1 1616   6.009   1.210   9.575
  108LIG    OD2 1617   6.118   1.012   9.569
  108LIG      C 1618   6.113   1.289   9.839
  108LIG    OT1 1619   6.078   1.374   9.940
  108LIG    OT2 1620   6.156   1.326   9.715
  109LIG      N 1621   4.132   6.521   0.276
  109LIG     H1 1622   4.056   6.467   0.312
  109LIG     H2 1623   4.138   6.510   0.177
  109LIG     H3 1624   4.218   6.490   0.318
  109LIG     CA 1625   4.111   6.668   0.309
  109LIG     HA 1626   4.025   6.699   0.267
  109LIG     CB 1627   4.101   6.683   0.459
  109LIG    HB1 1628   4.186   6.650   0.502
  109LIG    HB2 1629   4.024   6.630   0.493
  109LIG     CG 1630   4.081   6.827   0.495
  109LIG    OD1 1631   4.195   6.899   0.508
  109LIG    OD2 1632   3.969   6.876   0.514
  109LIG      C 1633   4.229   6.753   0.254
  109LIG    OT1 1634   4.329   6.686   0.189
  109LIG    OT2 1635   4.224   6.887   0.276
  110LIG      N 1636   9.894   0.162   2.049
  110LIG     H1 1637   9.969   0.110   2.007
  110LIG     H2 1638   9.927   0.208   2.131
  110LIG     H3 1639   9.819   0.099   2.072
  110LIG     CA 1640   9.843   0.265   1.950
  110LIG     HA 1641   9.917   0.327   1.925
  110LIG     CB 1642   9.794   0.194   1.825
  110LIG    HB1 1643   9.721   0.129   1.850
  110LIG    HB2 1644   9.869   0.143   1.784
  110LIG     CG 1645   9.741   0.292   1.726
  110LIG    OD1 1646   9.611   0.325   1.742
  110LIG    OD2 1647   9.811   0.339   1.635
  110LIG      C 1648   9.726   0.346   2.013
  110LIG    OT1 1649   9.690   0.313   2.141
  110LIG    OT2 1650   9.669   0.443   1.936
  111LIG      N 1651   2.415   9.452   3.259
  111LIG     H1 1652   2.498   9.478   3.210
  111LIG     H2 1653   2.409   9.352   3.266
  111LIG     H3 1654   2.335   9.487   3.211
  111LIG     CA 1655   2.418   9.511   3.399
  111LIG     HA 1656   2.499   9.477   3.448
  111LIG     CB 1657   2.428   9.662   3.387
  111LIG    HB1 1658   2.349   9.697   3.336
  111LIG    HB2 1659   2.511   9.687   3.339
  111LIG     CG 1660   2.430   9.725   3.523
  111LIG    OD1 1661   2.308   9.749   3.577
  111LIG    OD2 1662   2.535   9.753   3.581
  111LIG      C 1663   2.290   9.472   3.477
  111LIG    OT1 1664   2.198   9.395   3.411
  111LIG    OT2 1665   2.278   9.519   3.604
  112LIG      N 1666   2.294   7.957   7.980
  112LIG     H1 1667   2.327   8.043   8.018
  112LIG     H2 1668   2.195   7.949   7.996
  112LIG     H3 1669   2.341   7.881   8.023
  112LIG     CA 1670   2.321   7.953   7.830
  112LIG     HA 1671   2.274   8.030   7.786
  112LIG     CB 1672   2.470   7.967   7.807
  112LIG    HB1 1673   2.518   7.892   7.854
  112LIG    HB2 1674   2.502   8.053   7.845
  112LIG     CG 1675   2.501   7.962   7.661
  112LIG    OD1 1676   2.517   7.838   7.610
  112LIG    OD2 1677   2.512   8.064   7.593
  112LIG      C 1678   2.270   7.819   7.770
  112LIG    OT1 1679   2.212   7.731   7.856
  112LIG    OT2 1680   2.288   7.801   7.636
  113LIG      N 1681   8.449   0.831   1.585
  113LIG     H1 1682   8.373   0.894   1.569
  113LIG     H2 1683   8.472   0.830   1.682
  113LIG     H3 1684   8.528   0.859   1.531
  113LIG     CA 1685   8.407   0.691   1.542
  113LIG     HA 1686   8.327   0.662   1.595
  113LIG     CB 1687   8.371   0.693   1.395
  113LIG    HB1 1688   8.449   0.725   1.341
  113LIG    HB2 1689   8.295   0.756   1.380
  113LIG     CG 1690   8.330   0.557   1.349
  113LIG    OD1 1691   8.433   0.478   1.309
  113LIG    OD2 1692   8.213   0.520   1.346
  113LIG      C 1693   8.524   0.591   1.566
  113LIG    OT1 1694   8.639   0.642   1.618
  113LIG    OT2 1695   8.502   0.461   1.532
  114LIG      N 1696   0.248   8.795   3.910
  114LIG     H1 1697   0.300   8.875   3.940
  114LIG     H2 1698   0.245   8.792   3.810
  114LIG     H3 1699   0.155   8.800   3.946
  114LIG     CA 1700   0.315   8.668   3.962
  114LIG     HA 1701   0.408   8.663   3.927
  114LIG     CB 1702   0.319   8.675   4.113
  114LIG    HB1 1703   0.226   8.683   4.150
  114LIG    HB2 1704   0.372   8.754   4.142
  114LIG     CG 1705   0.383   8.551   4.169
  114LIG    OD1 1706   0.298   8.447   4.188
  114LIG    OD2 1707   0.503   8.545   4.195
  114LIG      C 1708   0.234   8.543   3.917
  114LIG    OT1 1709   0.122   8.565   3.841
  114LIG    OT2 1710   0.281   8.422   3.956
  115LIG      N 1711   8.573   3.685   3.221
  115LIG     H1 1712   8.629   3.746   3.164
  115LIG     H2 1713   8.491   3.733   3.251
  115LIG     H3 1714   8.627   3.655   3.300
  115LIG     CA 1715   8.533   3.563   3.139
  115LIG     HA 1716   8.481   3.592   3.060
  115LIG     CB 1717   8.659   3.492   3.092
  115LIG    HB1 1718   8.714   3.465   3.172
  115LIG    HB2 1719   8.712   3.554   3.035
  115LIG     CG 1720   8.623   3.370   3.013
  115LIG    OD1 1721   8.603   3.259   3.086
  115LIG    OD2 1722   8.614   3.372   2.890
  115LIG      C 1723   8.448   3.467   3.226
  115LIG    OT1 1724   8.423   3.505   3.355
  115LIG    OT2 1725   8.404   3.352   3.167
  116LIG      N 1726   2.177   0.638   1.281
  116LIG     H1 1727   2.223   0.582   1.212
  116LIG     H2 1728   2.120   0.580   1.339
  116LIG     H3 1729   2.120   0.707   1.236
  116LIG     CA 1730   2.281   0.708   1.368
  116LIG     HA 1731   2.338   0.640   1.412
  116LIG     CB 1732   2.367   0.795   1.279
  116LIG    HB1 1733   2.310   0.862   1.232
  116LIG    HB2 1734   2.413   0.739   1.211
  116LIG     CG 1735   2.470   0.867   1.361
  116LIG    OD1 1736   2.428   0.984   1.414
  116LIG    OD2 1737   2.584   0.823   1.378
  116LIG      C 1738   2.210   0.796   1.475
  116LIG    OT1 1739   2.073   0.796   1.475
  116LIG    OT2 1740   2.290   0.865   1.560
  117LIG      N 1741   2.195   2.921   4.599
  117LIG     H1 1742   2.160   2.840   4.646
  117LIG     H2 1743   2.149   2.931   4.511
  117LIG     H3 1744   2.293   2.913   4.586
  117LIG     CA 1745   2.166   3.044   4.685
  117LIG     HA 1746   2.068   3.053   4.699
  117LIG     CB 1747   2.234   3.027   4.819
  117LIG    HB1 1748   2.333   3.016   4.805
  117LIG    HB2 1749   2.198   2.946   4.865
  117LIG     CG 1750   2.209   3.147   4.905
  117LIG    OD1 1751   2.297   3.249   4.888
  117LIG    OD2 1752   2.117   3.152   4.986
  117LIG      C 1753   2.220   3.171   4.614
  117LIG    OT1 1754   2.281   3.154   4.493
  117LIG    OT2 1755   2.202   3.290   4.678
  118LIG      N 1756   9.184   6.753   6.781
  118LIG     H1 1757   9.166   6.689   6.707
  118LIG     H2 1758   9.161   6.711   6.869
  118LIG     H3 1759   9.129   6.836   6.768
  118LIG     CA 1760   9.331   6.791   6.781
  118LIG     HA 1761   9.387   6.709   6.792
  118LIG     CB 1762   9.365   6.855   6.647
  118LIG    HB1 1763   9.308   6.936   6.633
  118LIG    HB2 1764   9.347   6.790   6.574
  118LIG     CG 1765   9.509   6.895   6.644
  118LIG    OD1 1766   9.535   7.017   6.694
  118LIG    OD2 1767   9.597   6.822   6.597
  118LIG      C 1768   9.361   6.891   6.896
  118LIG    OT1 1769   9.256   6.928   6.975
  118LIG    OT2 1770   9.489   6.935   6.908
  119LIG      N 1771   0.130   5.950   1.766
  119LIG     H1 1772   0.194   5.997   1.827
  119LIG     H2 1773   0.125   5.853   1.791
  119LIG     H3 1774   0.162   5.959   1.671
  119LIG     CA 1775  -0.008   6.013   1.777
  119LIG     HA 1776  -0.040   6.006   1.871
  119LIG     CB 1777   0.002   6.159   1.740
  119LIG    HB1 1778   0.037   6.168   1.646
  119LIG    HB2 1779   0.065   6.206   1.802
  119LIG     CG 1780  -0.133   6.225   1.749
  119LIG    OD1 1781  -0.208   6.214   1.637
  119LIG    OD2 1782  -0.171   6.284   1.850
  119LIG      C 1783  -0.107   5.941   1.682
  119LIG    OT1 1784  -0.058   5.838   1.607
  119LIG    OT2 1785  -0.236   5.986   1.681
  120LIG      N 1786   4.454   1.894   0.328
  120LIG     H1 1787   4.441   1.892   0.229
  120LIG     H2 1788   4.533   1.838   0.353
  120LIG     H3 1789   4.372   1.859   0.374
  120LIG     CA 1790   4.478   2.038   0.372
  120LIG     HA 1791   4.559   2.074   0.326
  120LIG     CB 1792   4.358   2.122   0.333
  120LIG    HB1 1793   4.276   2.085   0.377
  120LIG    HB2 1794   4.346   2.119   0.234
  120LIG     CG 1795   4.378   2.264   0.377
  120LIG    OD1 1796   4.339   2.290   0.503
  120LIG    OD2 1797   4.424   2.350   0.302
  120LIG      C 1798   4.499   2.043   0.526
  120LIG    OT1 1799   4.492   1.925   0.594
  120LIG    OT2 1800   4.521   2.166   0.581
  121LIG      N 1801   2.114   1.294   8.385
  121LIG     H1 1802   2.180   1.360   8.422
  121LIG     H2 1803   2.113   1.299   8.285
  121LIG     H3 1804   2.023   1.314   8.421
  121LIG     CA 1805   2.154   1.153   8.428
  121LIG     HA 1806   2.245   1.133   8.393
  121LIG     CB 1807   2.157   1.146   8.579
  121LIG    HB1 1808   2.066   1.170   8.615
  121LIG    HB2 1809   2.223   1.212   8.614
  121LIG     CG 1810   2.194   1.009   8.624
  121LIG    OD1 1811   2.091   0.922   8.634
  121LIG    OD2 1812   2.310   0.977   8.651
  121LIG      C 1813   2.052   1.050   8.372
  121LIG    OT1 1814   1.948   1.099   8.297
  121LIG    OT2 1815   2.074   0.919   8.401
  122LIG      N 1816   8.462   1.360   0.583
  122LIG     H1 1817   8.384   1.297   0.570
  122LIG     H2 1818   8.530   1.343   0.512
  122LIG     H3 1819   8.502   1.344   0.673
  122LIG     CA 1820   8.413   1.503   0.574
  122LIG     HA 1821   8.372   1.519   0.485
  122LIG     CB 1822   8.309   1.527   0.682
  122LIG    HB1 1823   8.349   1.508   0.772
  122LIG    HB2 1824   8.232   1.465   0.667
  122LIG     CG 1825   8.260   1.668   0.677
  122LIG    OD1 1826   8.334   1.756   0.748
  122LIG    OD2 1827   8.159   1.701   0.615
  122LIG      C 1828   8.533   1.601   0.595
  122LIG    OT1 1829   8.656   1.545   0.616
  122LIG    OT2 1830   8.505   1.734   0.590
  123LIG      N 1831   9.909   6.588   1.212
  123LIG     H1 1832   9.986   6.617   1.155
  123LIG     H2 1833   9.919   6.629   1.303
  123LIG     H3 1834   9.909   6.489   1.219
  123LIG     CA 1835   9.779   6.635   1.149
  123LIG     HA 1836   9.780   6.734   1.141
  123LIG     CB 1837   9.767   6.574   1.011
  123LIG    HB1 1838   9.769   6.474   1.018
  123LIG    HB2 1839   9.844   6.604   0.955
  123LIG     CG 1840   9.639   6.617   0.946
  123LIG    OD1 1841   9.532   6.539   0.976
  123LIG    OD2 1842   9.632   6.714   0.871
  123LIG      C 1843   9.659   6.590   1.237
  123LIG    OT1 1844   9.688   6.520   1.351
  123LIG    OT2 1845   9.534   6.624   1.194
  124LIG      N 1846   4.837   0.098   1.019
  124LIG     H1 1847   4.921   0.048   0.998
  124LIG     H2 1848   4.765   0.035   1.047
  124LIG     H3 1849   4.807   0.149   0.938
  124LIG     CA 1850   4.865   0.197   1.131
  124LIG     HA 1851   4.895   0.147   1.212
  124LIG     CB 1852   4.974   0.292   1.088
  124LIG    HB1 1853   4.946   0.340   1.005
  124LIG    HB2 1854   5.057   0.240   1.068
  124LIG     CG 1855   5.004   0.391   1.195
  124LIG    OD1 1856   4.925   0.501   1.194
  124LIG    OD2 1857   5.093   0.375   1.278
  124LIG      C 1858   4.736   0.277   1.165
  124LIG    OT1 1859   4.624   0.248   1.092
  124LIG    OT2 1860   4.745   0.370   1.264
  125LIG      N 1861   4.541   1.308   3.954
  125LIG     H1 1862   4.516   1.230   4.012
  125LIG     H2 1863   4.583   1.380   4.010
  125LIG     H3 1864   4.460   1.343   3.908
  125LIG     CA 1865   4.641   1.263   3.849
  125LIG     HA 1866   4.723   1.226   3.894
  125LIG     CB 1867   4.578   1.153   3.765
  125LIG    HB1 1868   4.495   1.188   3.722
  125LIG    HB2 1869   4.555   1.076   3.823
  125LIG     CG 1870   4.674   1.107   3.659
  125LIG    OD1 1871   4.671   1.179   3.545
  125LIG    OD2 1872   4.748   1.010   3.675
  125LIG      C 1873   4.681   1.382   3.758
  125LIG    OT1 1874   4.623   1.503   3.785
  125LIG    OT2 1875   4.770   1.357   3.658
  126LIG      N 1876   1.501   9.008   4.992
  126LIG     H1 1877   1.549   9.052   4.917
  126LIG     H2 1878   1.416   9.058   5.011
  126LIG     H3 1879   1.559   9.008   5.074
  126LIG     CA 1880   1.468   8.865   4.955
  126LIG     HA 1881   1.410   8.864   4.873
  126LIG     CB 1882   1.596   8.791   4.925
  126LIG    HB1 1883   1.656   8.794   5.005
  126LIG    HB2 1884   1.644   8.835   4.849
  126LIG     CG 1885   1.568   8.649   4.889
  126LIG    OD1 1886   1.559   8.564   4.994
  126LIG    OD2 1887   1.555   8.612   4.772
  126LIG      C 1888   1.393   8.795   5.072
  126LIG    OT1 1889   1.370   8.869   5.184
  126LIG    OT2 1890   1.356   8.665   5.053
  127LIG      N 1891   5.192   1.212   1.870
  127LIG     H1 1892   5.137   1.130   1.855
  127LIG     H2 1893   5.233   1.209   1.961
  127LIG     H3 1894   5.133   1.293   1.863
  127LIG     CA 1895   5.302   1.221   1.765
  127LIG     HA 1896   5.360   1.140   1.772
  127LIG     CB 1897   5.238   1.225   1.628
  127LIG    HB1 1898   5.177   1.305   1.622
  127LIG    HB2 1899   5.185   1.142   1.613
  127LIG     CG 1900   5.344   1.235   1.522
  127LIG    OD1 1901   5.384   1.361   1.494
  127LIG    OD2 1902   5.389   1.136   1.465
  127LIG      C 1903   5.387   1.349   1.788
  127LIG    OT1 1904   5.352   1.429   1.893
  127LIG    OT2 1905   5.490   1.370   1.702
  128LIG      N 1906   8.289   8.561   2.539
  128LIG     H1 1907   8.357   8.582   2.469
  128LIG     H2 1908   8.211   8.624   2.529
  128LIG     H3 1909   8.330   8.572   2.630
  128LIG     CA 1910   8.241   8.418   2.523
  128LIG     HA 1911   8.201   8.406   2.433
  128LIG     CB 1912   8.360   8.325   2.537
  128LIG    HB1 1913   8.402   8.338   2.627
  128LIG    HB2 1914   8.427   8.345   2.466
  128LIG     CG 1915   8.316   8.182   2.523
  128LIG    OD1 1916   8.274   8.125   2.638
  128LIG    OD2 1917   8.320   8.122   2.416
  128LIG      C 1918   8.135   8.385   2.632
  128LIG    OT1 1919   8.103   8.485   2.720
  128LIG    OT2 1920   8.082   8.259   2.631
  129LIG      N 1921   0.933   8.701   7.966
  129LIG     H1 1922   0.848   8.711   7.914
  129LIG     H2 1923   1.011   8.728   7.909
  129LIG     H3 1924   0.944   8.605   7.994
  129LIG     CA 1925   0.927   8.788   8.090
  129LIG     HA 1926   0.916   8.883   8.063
  129LIG     CB 1927   0.809   8.746   8.174
  129LIG    HB1 1928   0.818   8.649   8.200
  129LIG    HB2 1929   0.725   8.757   8.122
  129LIG     CG 1930   0.801   8.829   8.299
  129LIG    OD1 1931   0.875   8.783   8.402
  129LIG    OD2 1932   0.731   8.930   8.306
  129LIG      C 1933   1.058   8.772   8.172
  129LIG    OT1 1934   1.153   8.687   8.122
  129LIG    OT2 1935   1.069   8.845   8.287
  130LIG      N 1936   6.794   7.416   0.255
  130LIG     H1 1937   6.789   7.500   0.201
  130LIG     H2 1938   6.846   7.433   0.338
  130LIG     H3 1939   6.838   7.345   0.201
  130LIG     CA 1940   6.653   7.371   0.291
  130LIG     HA 1941   6.608   7.443   0.344
  130LIG     CB 1942   6.575   7.348   0.164
  130LIG    HB1 1943   6.621   7.278   0.108
  130LIG    HB2 1944   6.570   7.432   0.111
  130LIG     CG 1945   6.436   7.302   0.196
  130LIG    OD1 1946   6.423   7.169   0.214
  130LIG    OD2 1947   6.341   7.380   0.204
  130LIG      C 1948   6.659   7.240   0.374
  130LIG    OT1 1949   6.783   7.189   0.401
  130LIG    OT2 1950   6.540   7.187   0.415
  131LIG      N 1951   9.105   5.553   3.734
  131LIG     H1 1952   9.180   5.596   3.683
  131LIG     H2 1953   9.037   5.622   3.759
  131LIG     H3 1954   9.142   5.511   3.817
  131LIG     CA 1955   9.040   5.446   3.649
  131LIG     HA 1956   9.003   5.487   3.566
  131LIG     CB 1957   9.144   5.343   3.611
  131LIG    HB1 1958   9.183   5.303   3.694
  131LIG    HB2 1959   9.217   5.387   3.559
  131LIG     CG 1960   9.083   5.235   3.528
  131LIG    OD1 1961   9.027   5.134   3.598
  131LIG    OD2 1962   9.084   5.237   3.405
  131LIG      C 1963   8.925   5.378   3.728
  131LIG    OT1 1964   8.902   5.423   3.855
  131LIG    OT2 1965   8.856   5.279   3.664
  132LIG      N 1966   8.919   2.147   5.842
  132LIG     H1 1967   8.908   2.068   5.903
  132LIG     H2 1968   8.885   2.229   5.888
  132LIG     H3 1969   8.867   2.131   5.758
  132LIG     CA 1970   9.065   2.165   5.807
  132LIG     HA 1971   9.118   2.181   5.891
  132LIG     CB 1972   9.116   2.040   5.740
  132LIG    HB1 1973   9.062   2.022   5.657
  132LIG    HB2 1974   9.106   1.962   5.802
  132LIG     CG 1975   9.260   2.055   5.703
  132LIG    OD1 1976   9.282   2.113   5.583
  132LIG    OD2 1977   9.352   2.016   5.776
  132LIG      C 1978   9.082   2.287   5.712
  132LIG    OT1 1979   8.969   2.355   5.677
  132LIG    OT2 1980   9.209   2.317   5.672
  133LIG      N 1981   6.386   2.249   9.830
  133LIG     H1 1982   6.462   2.194   9.795
  133LIG     H2 1983   6.373   2.231   9.927
  133LIG     H3 1984   6.302   2.226   9.780
  133LIG     CA 1985   6.417   2.397   9.810
  133LIG     HA 1986   6.500   2.420   9.858
  133LIG     CB 1987   6.437   2.423   9.662
  133LIG    HB1 1988   6.354   2.397   9.612
  133LIG    HB2 1989   6.513   2.368   9.628
  133LIG     CG 1990   6.466   2.568   9.638
  133LIG    OD1 1991   6.356   2.646   9.624
  133LIG    OD2 1992   6.581   2.612   9.630
  133LIG      C 1993   6.299   2.483   9.863
  133LIG    OT1 1994   6.192   2.417   9.917
  133LIG    OT2 1995   6.312   2.618   9.852
  134LIG      N 1996   0.418   8.759   4.945
  134LIG     H1 1997   0.374   8.840   4.983
  134LIG     H2 1998   0.487   8.786   4.878
  134LIG     H3 1999   0.349   8.702   4.900
  134LIG     CA 2000   0.483   8.678   5.056
  134LIG     HA 2001   0.552   8.735   5.102
  134LIG     CB 2002   0.378   8.638   5.156
  134LIG    HB1 2003   0.307   8.584   5.110
  134LIG    HB2 2004   0.335   8.720   5.195
  134LIG     CG 2005   0.438   8.558   5.267
  134LIG    OD1 2006   0.447   8.425   5.242
  134LIG    OD2 2007   0.476   8.608   5.372
  134LIG      C 2008   0.551   8.552   4.997
  134LIG    OT1 2009   0.542   8.533   4.862
  134LIG    OT2 2010   0.615   8.469   5.085
  135LIG      N 2011   3.443   8.062   7.365
  135LIG     H1 2012   3.539   8.034   7.373
  135LIG     H2 2013   3.415   8.054   7.269
  135LIG     H3 2014   3.433   8.156   7.396
  135LIG     CA 2015   3.356   7.971   7.450
  135LIG     HA 2016   3.366   7.877   7.420
  135LIG     CB 2017   3.401   7.983   7.594
  135LIG    HB1 2018   3.394   8.078   7.625
  135LIG    HB2 2019   3.496   7.954   7.602
  135LIG     CG 2020   3.317   7.896   7.683
  135LIG    OD1 2021   3.203   7.954   7.727
  135LIG    OD2 2022   3.349   7.781   7.713
  135LIG      C 2023   3.207   8.014   7.438
  135LIG    OT1 2024   3.179   8.120   7.357
  135LIG    OT2 2025   3.116   7.942   7.510
  136LIG      N 2026   4.955   8.437   9.442
  136LIG     H1 2027   5.054   8.441   9.429
  136LIG     H2 2028   4.910   8.470   9.359
  136LIG     H3 2029   4.930   8.495   9.520
  136LIG     CA 2030   4.912   8.294   9.471
  136LIG     HA 2031   4.938   8.236   9.394
  136LIG     CB 2032   4.983   8.246   9.596
  136LIG    HB1 2033   4.960   8.306   9.673
  136LIG    HB2 2034   5.081   8.249   9.582
  136LIG     CG 2035   4.942   8.106   9.628
  136LIG    OD1 2036   4.830   8.095   9.703
  136LIG    OD2 2037   5.006   8.008   9.590
  136LIG      C 2038   4.758   8.288   9.492
  136LIG    OT1 2039   4.689   8.406   9.481
  136LIG    OT2 2040   4.704   8.166   9.518
  137LIG      N 2041   8.509   1.565   7.103
  137LIG     H1 2042   8.523   1.516   7.016
  137LIG     H2 2043   8.411   1.577   7.119
  137LIG     H3 2044   8.554   1.654   7.099
  137LIG     CA 2045   8.570   1.484   7.216
  137LIG     HA 2046   8.526   1.394   7.221
  137LIG     CB 2047   8.717   1.465   7.190
  137LIG    HB1 2048   8.762   1.555   7.183
  137LIG    HB2 2049   8.730   1.416   7.104
  137LIG     CG 2050   8.781   1.387   7.301
  137LIG    OD1 2051   8.822   1.461   7.406
  137LIG    OD2 2052   8.795   1.265   7.296
  137LIG      C 2053   8.549   1.558   7.351
  137LIG    OT1 2054   8.484   1.678   7.347
  137LIG    OT2 2055   8.598   1.498   7.463
  138LIG      N 2056   1.768   3.648   1.317
  138LIG     H1 2057   1.803   3.566   1.272
  138LIG     H2 2058   1.690   3.684   1.266
  138LIG     H3 2059   1.840   3.717   1.322
  138LIG     CA 2060   1.724   3.612   1.459
  138LIG     HA 2061   1.652   3.543   1.454
  138LIG     CB 2062   1.842   3.556   1.534
  138LIG    HB1 2063   1.916   3.624   1.536
  138LIG    HB2 2064   1.876   3.474   1.488
  138LIG     CG 2065   1.803   3.521   1.674
  138LIG    OD1 2066   1.811   3.623   1.762
  138LIG    OD2 2067   1.768   3.408   1.707
  138LIG      C 2068   1.670   3.739   1.531
  138LIG    OT1 2069   1.671   3.856   1.460
  138LIG    OT2 2070   1.627   3.723   1.659
  139LIG      N 2071   2.158   1.192   9.824
  139LIG     H1 2072   2.251   1.196   9.787
  139LIG     H2 2073   2.127   1.096   9.824
  139LIG     H3 2074   2.097   1.247   9.767
  139LIG     CA 2075   2.157   1.246   9.965
  139LIG     HA 2076   2.219   1.192  10.022
  139LIG     CB 2077   2.205   1.389   9.963
  139LIG    HB1 2078   2.145   1.444   9.904
  139LIG    HB2 2079   2.298   1.393   9.927
  139LIG     CG 2080   2.204   1.447  10.101
  139LIG    OD1 2081   2.086   1.501  10.140
  139LIG    OD2 2082   2.304   1.447  10.174
  139LIG      C 2083   2.013   1.240  10.024
  139LIG    OT1 2084   1.915   1.188   9.943
  139LIG    OT2 2085   1.996   1.285  10.151
  140LIG      N 2086   1.747   5.938   1.556
  140LIG     H1 2087   1.782   6.005   1.491
  140LIG     H2 2088   1.738   5.849   1.511
  140LIG     H3 2089   1.658   5.967   1.590
  140LIG     CA 2090   1.843   5.926   1.673
  140LIG     HA 2091   1.933   5.897   1.640
  140LIG     CB 2092   1.857   6.061   1.740
  140LIG    HB1 2093   1.766   6.092   1.771
  140LIG    HB2 2094   1.892   6.127   1.674
  140LIG     CG 2095   1.950   6.053   1.857
  140LIG    OD1 2096   1.892   6.016   1.973
  140LIG    OD2 2097   2.070   6.079   1.847
  140LIG      C 2098   1.790   5.822   1.775
  140LIG    OT1 2099   1.671   5.760   1.746
  140LIG    OT2 2100   1.865   5.800   1.887
  141LIG      N 2101   1.099   2.136   1.316
  141LIG     H1 2102   1.149   2.123   1.402
  141LIG     H2 2103   1.053   2.051   1.291
  141LIG     H3 2104   1.164   2.162   1.244
  141LIG     CA 2105   0.997   2.247   1.334
  141LIG     HA 2106   0.933   2.222   1.406
  141LIG     CB 2107   1.069   2.374   1.373
  141LIG    HB1 2108   1.135   2.399   1.302
  141LIG    HB2 2109   1.117   2.360   1.459
  141LIG     CG 2110   0.971   2.487   1.390
  141LIG    OD1 2111   0.941   2.553   1.276
  141LIG    OD2 2112   0.922   2.516   1.499
  141LIG      C 2113   0.920   2.269   1.201
  141LIG    OT1 2114   0.954   2.190   1.095
  141LIG    OT2 2115   0.824   2.366   1.200
  142LIG      N 2116   0.090   9.162   6.996
  142LIG     H1 2117   0.189   9.150   6.985
  142LIG     H2 2118   0.064   9.253   6.964
  142LIG     H3 2119   0.065   9.152   7.092
  142LIG     CA 2120   0.017   9.057   6.913
  142LIG     HA 2121   0.042   9.066   6.817
  142LIG     CB 2122   0.058   8.920   6.962
  142LIG    HB1 2123   0.035   8.910   7.059
  142LIG    HB2 2124   0.156   8.908   6.950
  142LIG     CG 2125  -0.014   8.813   6.884
  142LIG    OD1 2126  -0.136   8.780   6.932
  142LIG    OD2 2127   0.036   8.760   6.785
  142LIG      C 2128  -0.137   9.075   6.929
  142LIG    OT1 2129  -0.180   9.177   7.010
  142LIG    OT2 2130  -0.217   8.988   6.861
  143LIG      N 2131   5.614   5.062   9.463
  143LIG     H1 2132   5.667   5.010   9.395
  143LIG     H2 2133   5.518   5.065   9.435
  143LIG     H3 2134   5.650   5.155   9.469
  143LIG     CA 2135   5.626   4.995   9.599
  143LIG     HA 2136   5.591   4.902   9.593
  143LIG     CB 2137   5.771   4.991   9.639
  143LIG    HB1 2138   5.808   5.084   9.642
  143LIG    HB2 2139   5.823   4.938   9.572
  143LIG     CG 2140   5.787   4.927   9.774
  143LIG    OD1 2141   5.774   5.012   9.878
  143LIG    OD2 2142   5.810   4.807   9.788
  143LIG      C 2143   5.544   5.076   9.704
  143LIG    OT1 2144   5.479   5.187   9.660
  143LIG    OT2 2145   5.545   5.028   9.832
  144LIG      N 2146   9.398   8.725   2.394
  144LIG     H1 2147   9.319   8.673   2.362
  144LIG     H2 2148   9.410   8.807   2.338
  144LIG     H3 2149   9.480   8.667   2.388
  144LIG     CA 2150   9.377   8.766   2.539
  144LIG     HA 2151   9.295   8.823   2.546
  144LIG     CB 2152   9.357   8.641   2.623
  144LIG    HB1 2153   9.438   8.582   2.615
  144LIG    HB2 2154   9.277   8.591   2.591
  144LIG     CG 2155   9.337   8.678   2.767
  144LIG    OD1 2156   9.451   8.693   2.838
  144LIG    OD2 2157   9.226   8.692   2.816
  144LIG      C 2158   9.500   8.845   2.590
  144LIG    OT1 2159   9.603   8.865   2.502
  144LIG    OT2 2160   9.496   8.889   2.719
  145LIG      N 2161   1.947   1.897   7.487
  145LIG     H1 2162   1.892   1.819   7.517
  145LIG     H2 2163   2.044   1.875   7.498
  145LIG     H3 2164   1.923   1.977   7.541
  145LIG     CA 2165   1.918   1.925   7.340
  145LIG     HA 2166   1.941   1.845   7.286
  145LIG     CB 2167   1.771   1.955   7.324
  145LIG    HB1 2168   1.746   2.035   7.381
  145LIG    HB2 2169   1.717   1.877   7.354
  145LIG     CG 2170   1.739   1.985   7.181
  145LIG    OD1 2171   1.756   2.114   7.145
  145LIG    OD2 2172   1.698   1.899   7.103
  145LIG      C 2173   2.002   2.046   7.292
  145LIG    OT1 2174   2.085   2.105   7.384
  145LIG    OT2 2175   1.988   2.084   7.162
  146LIG      N 2176   1.181   9.461   3.235
  146LIG     H1 2177   1.089   9.481   3.269
  146LIG     H2 2178   1.177   9.447   3.136
  146LIG     H3 2179   1.215   9.379   3.280
  146LIG     CA 2180   1.273   9.578   3.266
  146LIG     HA 2181   1.238   9.660   3.222
  146LIG     CB 2182   1.276   9.599   3.416
  146LIG    HB1 2183   1.308   9.516   3.462
  146LIG    HB2 2184   1.184   9.620   3.449
  146LIG     CG 2185   1.367   9.713   3.451
  146LIG    OD1 2186   1.497   9.679   3.466
  146LIG    OD2 2187   1.326   9.828   3.465
  146LIG      C 2188   1.416   9.547   3.215
  146LIG    OT1 2189   1.436   9.427   3.153
  146LIG    OT2 2190   1.511   9.643   3.235
  147LIG      N 2191   1.408   5.610   4.910
  147LIG     H1 2192   1.484   5.544   4.915
  147LIG     H2 2193   1.349   5.588   4.832
  147LIG     H3 2194   1.445   5.702   4.900
  147LIG     CA 2195   1.327   5.603   5.038
  147LIG     HA 2196   1.291   5.510   5.050
  147LIG     CB 2197   1.417   5.635   5.155
  147LIG    HB1 2198   1.456   5.727   5.144
  147LIG    HB2 2199   1.491   5.569   5.160
  147LIG     CG 2200   1.340   5.630   5.284
  147LIG    OD1 2201   1.277   5.745   5.316
  147LIG    OD2 2202   1.335   5.530   5.354
  147LIG      C 2203   1.210   5.704   5.033
  147LIG    OT1 2204   1.198   5.780   4.919
  147LIG    OT2 2205   1.127   5.710   5.141
  148LIG      N 2206   3.006   9.480   7.972
  148LIG     H1 2207   2.957   9.482   7.885
  148LIG     H2 2208   3.102   9.503   7.957
  148LIG     H3 2209   2.998   9.389   8.012
  148LIG     CA 2210   2.944   9.582   8.067
  148LIG     HA 2211   2.951   9.673   8.027
  148LIG     CB 2212   2.798   9.548   8.087
  148LIG    HB1 2213   2.790   9.455   8.125
  148LIG    HB2 2214   2.750   9.551   8.000
  148LIG     CG 2215   2.734   9.645   8.181
  148LIG    OD1 2216   2.747   9.614   8.312
  148LIG    OD2 2217   2.674   9.745   8.142
  148LIG      C 2218   3.018   9.579   8.203
  148LIG    OT1 2219   3.122   9.491   8.216
  148LIG    OT2 2220   2.975   9.665   8.299
  149LIG      N 2221   2.442   8.552   6.389
  149LIG     H1 2222   2.367   8.498   6.351
  149LIG     H2 2223   2.442   8.542   6.489
  149LIG     H3 2224   2.429   8.648   6.364
  149LIG     CA 2225   2.574   8.502   6.333
  149LIG     HA 2226   2.586   8.406   6.357
  149LIG     CB 2227   2.572   8.516   6.183
  149LIG    HB1 2228   2.557   8.612   6.158
  149LIG    HB2 2229   2.498   8.461   6.145
  149LIG     CG 2230   2.702   8.469   6.124
  149LIG    OD1 2231   2.798   8.563   6.118
  149LIG    OD2 2232   2.718   8.354   6.084
  149LIG      C 2233   2.691   8.586   6.392
  149LIG    OT1 2234   2.658   8.686   6.480
  149LIG    OT2 2235   2.817   8.554   6.351
  150LIG      N 2236   9.424   5.166   4.343
  150LIG     H1 2237   9.485   5.230   4.296
  150LIG     H2 2238   9.437   5.172   4.442
  150LIG     H3 2239   9.444   5.073   4.312
  150LIG     CA 2240   9.280   5.199   4.308
  150LIG     HA 2241   9.259   5.292   4.338
  150LIG     CB 2242   9.262   5.190   4.158
  150LIG    HB1 2243   9.285   5.097   4.127
  150LIG    HB2 2244   9.322   5.255   4.113
  150LIG     CG 2245   9.120   5.220   4.120
  150LIG    OD1 2246   9.036   5.115   4.124
  150LIG    OD2 2247   9.084   5.333   4.088
  150LIG      C 2248   9.184   5.099   4.379
  150LIG    OT1 2249   9.241   5.002   4.457
  150LIG    OT2 2250   9.050   5.116   4.358
  151LIG      N 2251   9.467   7.065   0.945
  151LIG     H1 2252   9.552   7.026   0.981
  151LIG     H2 2253   9.465   7.163   0.962
  151LIG     H3 2254   9.389   7.021   0.989
  151LIG     CA 2255   9.460   7.039   0.795
  151LIG     HA 2256   9.538   7.082   0.750
  151LIG     CB 2257   9.465   6.890   0.771
  151LIG    HB1 2258   9.388   6.846   0.818
  151LIG    HB2 2259   9.550   6.853   0.806
  151LIG     CG 2260   9.457   6.861   0.624
  151LIG    OD1 2261   9.331   6.852   0.575
  151LIG    OD2 2262   9.557   6.845   0.554
  151LIG      C 2263   9.328   7.098   0.738
  151LIG    OT1 2264   9.244   7.160   0.826
  151LIG    OT2 2265   9.307   7.083   0.604
  152LIG      N 2266   8.764   0.415   0.419
  152LIG     H1 2267   8.814   0.330   0.438
  152LIG     H2 2268   8.771   0.437   0.321
  152LIG     H3 2269   8.804   0.489   0.473
  152LIG     CA 2270   8.618   0.398   0.457
  152LIG     HA 2271   8.578   0.324   0.405
  152LIG     CB 2272   8.610   0.364   0.605
  152LIG    HB1 2273   8.653   0.437   0.659
  152LIG    HB2 2274   8.659   0.279   0.622
  152LIG     CG 2275   8.467   0.348   0.647
  152LIG    OD1 2276   8.406   0.463   0.683
  152LIG    OD2 2277   8.411   0.238   0.649
  152LIG      C 2278   8.540   0.529   0.429
  152LIG    OT1 2279   8.611   0.634   0.377
  152LIG    OT2 2280   8.407   0.530   0.459
  153LIG      N 2281   8.020   3.901   4.248
  153LIG     H1 2282   8.054   3.807   4.239
  153LIG     H2 2283   8.037   3.933   4.341
  153LIG     H3 2284   7.922   3.903   4.228
  153LIG     CA 2285   8.093   3.991   4.149
  153LIG     HA 2286   8.191   3.988   4.168
  153LIG     CB 2287   8.068   3.940   4.009
  153LIG    HB1 2288   7.970   3.939   3.990
  153LIG    HB2 2289   8.103   3.847   4.001
  153LIG     CG 2290   8.137   4.027   3.909
  153LIG    OD1 2291   8.066   4.134   3.868
  153LIG    OD2 2292   8.250   4.002   3.866
  153LIG      C 2293   8.041   4.136   4.162
  153LIG    OT1 2294   7.944   4.160   4.255
  153LIG    OT2 2295   8.097   4.230   4.080
  154LIG      N 2296   9.763   3.207   4.422
  154LIG     H1 2297   9.801   3.291   4.460
  154LIG     H2 2298   9.804   3.189   4.333
  154LIG     H3 2299   9.664   3.216   4.413
  154LIG     CA 2300   9.793   3.091   4.516
  154LIG     HA 2301   9.892   3.081   4.526
  154LIG     CB 2302   9.732   3.120   4.651
  154LIG    HB1 2303   9.633   3.132   4.642
  154LIG    HB2 2304   9.772   3.203   4.689
  154LIG     CG 2305   9.759   3.007   4.746
  154LIG    OD1 2306   9.669   2.906   4.741
  154LIG    OD2 2307   9.855   3.006   4.823
  154LIG      C 2308   9.734   2.959   4.458
  154LIG    OT1 2309   9.667   2.968   4.339
  154LIG    OT2 2310   9.753   2.846   4.531
  155LIG      N 2311   9.466   0.890   4.613
  155LIG     H1 2312   9.552   0.847   4.642
  155LIG     H2 2313   9.436   0.954   4.684
  155LIG     H3 2314   9.397   0.820   4.599
  155LIG     CA 2315   9.489   0.966   4.484
  155LIG     HA 2316   9.559   1.036   4.498
  155LIG     CB 2317   9.536   0.869   4.378
  155LIG    HB1 2318   9.468   0.797   4.365
  155LIG    HB2 2319   9.622   0.827   4.407
  155LIG     CG 2320   9.558   0.940   4.248
  155LIG    OD1 2321   9.448   0.951   4.170
  155LIG    OD2 2322   9.668   0.983   4.214
  155LIG      C 2323   9.357   1.034   4.438
  155LIG    OT1 2324   9.247   1.016   4.517
  155LIG    OT2 2325   9.361   1.106   4.322
  156LIG      N 2326   1.465   4.268   0.829
  156LIG     H1 2327   1.415   4.190   0.867
  156LIG     H2 2328   1.430   4.353   0.869
  156LIG     H3 2329   1.453   4.271   0.730
  156LIG     CA 2330   1.613   4.254   0.862
  156LIG     HA 2331   1.625   4.251   0.961
  156LIG     CB 2332   1.664   4.125   0.802
  156LIG    HB1 2333   1.649   4.126   0.702
  156LIG    HB2 2334   1.614   4.048   0.841
  156LIG     CG 2335   1.810   4.109   0.830
  156LIG    OD1 2336   1.892   4.168   0.741
  156LIG    OD2 2337   1.851   4.045   0.927
  156LIG      C 2338   1.691   4.375   0.803
  156LIG    OT1 2339   1.619   4.469   0.736
  156LIG    OT2 2340   1.826   4.377   0.824
  157LIG      N 2341   2.110   2.288   6.664
  157LIG     H1 2342   2.094   2.315   6.759
  157LIG     H2 2343   2.140   2.369   6.612
  157LIG     H3 2344   2.026   2.251   6.624
  157LIG     CA 2345   2.219   2.182   6.659
  157LIG     HA 2346   2.303   2.219   6.699
  157LIG     CB 2347   2.174   2.062   6.739
  157LIG    HB1 2348   2.088   2.027   6.701
  157LIG    HB2 2349   2.159   2.089   6.834
  157LIG     CG 2350   2.278   1.955   6.735
  157LIG    OD1 2351   2.269   1.871   6.629
  157LIG    OD2 2352   2.364   1.943   6.822
  157LIG      C 2353   2.245   2.141   6.511
  157LIG    OT1 2354   2.171   2.202   6.415
  157LIG    OT2 2355   2.341   2.046   6.490
  158LIG      N 2356   6.520   1.551   8.192
  158LIG     H1 2357   6.541   1.630   8.135
  158LIG     H2 2358   6.542   1.572   8.288
  158LIG     H3 2359   6.574   1.473   8.162
  158LIG     CA 2360   6.372   1.517   8.180
  158LIG     HA 2361   6.318   1.595   8.209
  158LIG     CB 2362   6.341   1.487   8.035
  158LIG    HB1 2363   6.398   1.410   8.004
  158LIG    HB2 2364   6.362   1.567   7.979
  158LIG     CG 2365   6.197   1.452   8.019
  158LIG    OD1 2366   6.167   1.321   8.040
  158LIG    OD2 2367   6.111   1.535   7.989
  158LIG      C 2368   6.339   1.394   8.268
  158LIG    OT1 2369   6.441   1.338   8.340
  158LIG    OT2 2370   6.209   1.351   8.268
  159LIG      N 2371   2.341   0.585   1.822
  159LIG     H1 2372   2.344   0.485   1.826
  159LIG     H2 2373   2.310   0.620   1.910
  159LIG     H3 2374   2.279   0.614   1.750
  159LIG     CA 2375   2.480   0.638   1.793
  159LIG     HA 2376   2.543   0.609   1.864
  159LIG     CB 2377   2.527   0.582   1.660
  159LIG    HB1 2378   2.463   0.609   1.588
  159LIG    HB2 2379   2.530   0.483   1.665
  159LIG     CG 2380   2.664   0.634   1.627
  159LIG    OD1 2381   2.665   0.753   1.563
  159LIG    OD2 2382   2.766   0.572   1.655
  159LIG      C 2383   2.477   0.793   1.786
  159LIG    OT1 2384   2.356   0.854   1.807
  159LIG    OT2 2385   2.595   0.857   1.760
  160LIG      N 2386   1.280   3.286   4.538
  160LIG     H1 2387   1.297   3.370   4.485
  160LIG     H2 2388   1.357   3.224   4.527
  160LIG     H3 2389   1.196   3.242   4.506
  160LIG     CA 2390   1.265   3.322   4.685
  160LIG     HA 2391   1.348   3.366   4.717
  160LIG     CB 2392   1.149   3.418   4.701
  160LIG    HB1 2393   1.065   3.375   4.666
  160LIG    HB2 2394   1.166   3.501   4.648
  160LIG     CG 2395   1.130   3.454   4.845
  160LIG    OD1 2396   1.052   3.368   4.915
  160LIG    OD2 2397   1.180   3.554   4.895
  160LIG      C 2398   1.239   3.193   4.768
  160LIG    OT1 2399   1.234   3.075   4.700
  160LIG    OT2 2400   1.223   3.209   4.903
  161LIG      N 2401   3.367   1.643   3.061
  161LIG     H1 2402   3.420   1.560   3.079
  161LIG     H2 2403   3.326   1.676   3.146
  161LIG     H3 2404   3.295   1.623   2.995
  161LIG     CA 2405   3.459   1.750   3.004
  161LIG     HA 2406   3.531   1.770   3.069
  161LIG     CB 2407   3.521   1.698   2.876
  161LIG    HB1 2408   3.448   1.675   2.810
  161LIG    HB2 2409   3.574   1.616   2.895
  161LIG     CG 2410   3.611   1.802   2.816
  161LIG    OD1 2411   3.549   1.891   2.735
  161LIG    OD2 2412   3.732   1.805   2.838
  161LIG      C 2413   3.378   1.879   2.975
  161LIG    OT1 2414   3.244   1.877   3.003
  161LIG    OT2 2415   3.446   1.985   2.923
  162LIG      N 2416   5.821   8.997   4.982
  162LIG     H1 2417   5.747   9.058   5.013
  162LIG     H2 2418   5.824   8.997   4.882
  162LIG     H3 2419   5.803   8.904   5.015
  162LIG     CA 2420   5.954   9.046   5.037
  162LIG     HA 2421   5.971   9.138   5.005
  162LIG     CB 2422   5.947   9.046   5.188
  162LIG    HB1 2423   5.926   8.953   5.221
  162LIG    HB2 2424   5.874   9.107   5.218
  162LIG     CG 2425   6.077   9.092   5.247
  162LIG    OD1 2426   6.169   8.995   5.264
  162LIG    OD2 2427   6.097   9.209   5.277
  162LIG      C 2428   6.068   8.952   4.990
  162LIG    OT1 2429   6.034   8.846   4.910
  162LIG    OT2 2430   6.194   8.982   5.032
  163LIG      N 2431   6.581   8.989   0.408
  163LIG     H1 2432   6.626   8.908   0.372
  163LIG     H2 2433   6.602   8.999   0.506
  163LIG     H3 2434   6.482   8.980   0.396
  163LIG     CA 2435   6.629   9.112   0.333
  163LIG     HA 2436   6.728   9.121   0.344
  163LIG     CB 2437   6.597   9.096   0.186
  163LIG    HB1 2438   6.498   9.084   0.174
  163LIG    HB2 2439   6.644   9.015   0.151
  163LIG     CG 2440   6.642   9.216   0.109
  163LIG    OD1 2441   6.552   9.317   0.104
  163LIG    OD2 2442   6.752   9.222   0.054
  163LIG      C 2443   6.559   9.239   0.388
  163LIG    OT1 2444   6.469   9.221   0.490
  163LIG    OT2 2445   6.591   9.358   0.331
  164LIG      N 2446   8.326   4.443   6.578
  164LIG     H1 2447   8.385   4.456   6.657
  164LIG     H2 2448   8.264   4.366   6.594
  164LIG     H3 2449   8.382   4.425   6.497
  164LIG     CA 2450   8.244   4.569   6.554
  164LIG     HA 2451   8.188   4.588   6.634
  164LIG     CB 2452   8.338   4.685   6.531
  164LIG    HB1 2453   8.396   4.666   6.452
  164LIG    HB2 2454   8.395   4.698   6.611
  164LIG     CG 2455   8.260   4.811   6.506
  164LIG    OD1 2456   8.225   4.830   6.377
  164LIG    OD2 2457   8.233   4.890   6.595
  164LIG      C 2458   8.152   4.550   6.430
  164LIG    OT1 2459   8.159   4.430   6.365
  164LIG    OT2 2460   8.072   4.654   6.396
  165LIG      N 2461   8.159   3.827   1.503
  165LIG     H1 2462   8.235   3.824   1.568
  165LIG     H2 2463   8.190   3.796   1.413
  165LIG     H3 2464   8.124   3.921   1.497
  165LIG     CA 2465   8.047   3.736   1.552
  165LIG     HA 2466   8.081   3.643   1.559
  165LIG     CB 2467   8.001   3.783   1.688
  165LIG    HB1 2468   7.970   3.878   1.682
  165LIG    HB2 2469   8.078   3.779   1.752
  165LIG     CG 2470   7.890   3.697   1.739
  165LIG    OD1 2471   7.767   3.734   1.699
  165LIG    OD2 2472   7.910   3.600   1.812
  165LIG      C 2473   7.928   3.741   1.452
  165LIG    OT1 2474   7.941   3.821   1.342
  165LIG    OT2 2475   7.819   3.664   1.482
  166LIG      N 2476   8.542   7.136   4.685
  166LIG     H1 2477   8.607   7.077   4.732
  166LIG     H2 2478   8.553   7.125   4.586
  166LIG     H3 2479   8.558   7.232   4.710
  166LIG     CA 2480   8.400   7.098   4.724
  166LIG     HA 2481   8.384   7.003   4.700
  166LIG     CB 2482   8.385   7.114   4.874
  166LIG    HB1 2483   8.405   7.210   4.900
  166LIG    HB2 2484   8.450   7.055   4.921
  166LIG     CG 2485   8.246   7.079   4.917
  166LIG    OD1 2486   8.157   7.180   4.909
  166LIG    OD2 2487   8.216   6.966   4.956
  166LIG      C 2488   8.298   7.189   4.651
  166LIG    OT1 2489   8.349   7.284   4.566
  166LIG    OT2 2490   8.166   7.167   4.676
  167LIG      N 2491   3.796   9.530   9.092
  167LIG     H1 2492   3.757   9.613   9.130
  167LIG     H2 2493   3.776   9.525   8.994
  167LIG     H3 2494   3.757   9.450   9.138
  167LIG     CA 2495   3.947   9.531   9.112
  167LIG     HA 2496   3.986   9.610   9.067
  167LIG     CB 2497   3.976   9.539   9.260
  167LIG    HB1 2498   3.935   9.460   9.307
  167LIG    HB2 2499   3.937   9.622   9.298
  167LIG     CG 2500   4.124   9.538   9.285
  167LIG    OD1 2501   4.180   9.415   9.293
  167LIG    OD2 2502   4.189   9.642   9.297
  167LIG      C 2503   4.009   9.401   9.053
  167LIG    OT1 2504   3.924   9.312   8.995
  167LIG    OT2 2505   4.144   9.387   9.064
  168LIG      N 2506   2.606   1.868   8.673
  168LIG     H1 2507   2.634   1.789   8.728
  168LIG     H2 2508   2.613   1.951   8.728
  168LIG     H3 2509   2.512   1.855   8.642
  168LIG     CA 2510   2.697   1.879   8.551
  168LIG     HA 2511   2.791   1.891   8.581
  168LIG     CB 2512   2.686   1.752   8.471
  168LIG    HB1 2513   2.591   1.738   8.442
  168LIG    HB2 2514   2.715   1.674   8.526
  168LIG     CG 2515   2.773   1.760   8.349
  168LIG    OD1 2516   2.715   1.818   8.241
  168LIG    OD2 2517   2.888   1.715   8.347
  168LIG      C 2518   2.654   2.001   8.465
  168LIG    OT1 2519   2.548   2.075   8.508
  168LIG    OT2 2520   2.726   2.024   8.351
  169LIG      N 2521   9.169   7.582   2.138
  169LIG     H1 2522   9.207   7.516   2.203
  169LIG     H2 2523   9.158   7.538   2.049
  169LIG     H3 2524   9.231   7.660   2.129
  169LIG     CA 2525   9.034   7.630   2.188
  169LIG     HA 2526   8.972   7.553   2.198
  169LIG     CB 2527   9.053   7.696   2.323
  169LIG    HB1 2528   9.117   7.772   2.315
  169LIG    HB2 2529   9.090   7.629   2.388
  169LIG     CG 2530   8.922   7.746   2.375
  169LIG    OD1 2531   8.889   7.871   2.334
  169LIG    OD2 2532   8.850   7.680   2.451
  169LIG      C 2533   8.974   7.733   2.088
  169LIG    OT1 2534   9.048   7.762   1.976
  169LIG    OT2 2535   8.853   7.786   2.119
  170LIG      N 2536   7.240   8.301   9.637
  170LIG     H1 2537   7.244   8.208   9.673
  170LIG     H2 2538   7.259   8.299   9.538
  170LIG     H3 2539   7.307   8.359   9.683
  170LIG     CA 2540   7.101   8.359   9.659
  170LIG     HA 2541   7.033   8.302   9.614
  170LIG     CB 2542   7.072   8.360   9.808
  170LIG    HB1 2543   7.141   8.415   9.855
  170LIG    HB2 2544   7.076   8.267   9.843
  170LIG     CG 2545   6.936   8.417   9.835
  170LIG    OD1 2546   6.933   8.552   9.846
  170LIG    OD2 2547   6.836   8.347   9.846
  170LIG      C 2548   7.094   8.503   9.603
  170LIG    OT1 2549   7.207   8.554   9.545
  170LIG    OT2 2550   6.975   8.569   9.616
  171LIG      N 2551   5.800   3.587   0.361
  171LIG     H1 2552   5.810   3.656   0.289
  171LIG     H2 2553   5.777   3.632   0.447
  171LIG     H3 2554   5.887   3.538   0.371
  171LIG     CA 2555   5.691   3.489   0.323
  171LIG     HA 2556   5.605   3.538   0.312
  171LIG     CB 2557   5.728   3.422   0.192
  171LIG    HB1 2558   5.816   3.375   0.202
  171LIG    HB2 2559   5.736   3.491   0.121
  171LIG     CG 2560   5.622   3.323   0.153
  171LIG    OD1 2561   5.638   3.200   0.205
  171LIG    OD2 2562   5.530   3.352   0.077
  171LIG      C 2563   5.675   3.381   0.434
  171LIG    OT1 2564   5.758   3.392   0.543
  171LIG    OT2 2565   5.581   3.285   0.415
  172LIG      N 2566   2.087   5.614   9.607
  172LIG     H1 2567   2.005   5.611   9.664
  172LIG     H2 2568   2.103   5.523   9.568
  172LIG     H3 2569   2.166   5.641   9.662
  172LIG     CA 2570   2.068   5.715   9.495
  172LIG     HA 2571   1.989   5.688   9.440
  172LIG     CB 2572   2.043   5.851   9.556
  172LIG    HB1 2573   2.121   5.877   9.613
  172LIG    HB2 2574   1.960   5.848   9.612
  172LIG     CG 2575   2.025   5.953   9.448
  172LIG    OD1 2576   2.139   6.009   9.403
  172LIG    OD2 2577   1.914   5.985   9.405
  172LIG      C 2578   2.194   5.719   9.405
  172LIG    OT1 2579   2.298   5.636   9.439
  172LIG    OT2 2580   2.193   5.805   9.300
  173LIG      N 2581   8.646   3.019   9.948
  173LIG     H1 2582   8.645   3.119   9.957
  173LIG     H2 2583   8.619   2.977  10.034
  173LIG     H3 2584   8.739   2.990   9.923
  173LIG     CA 2585   8.550   2.977   9.838
  173LIG     HA 2586   8.457   3.007   9.862
  173LIG     CB 2587   8.591   3.043   9.709
  173LIG    HB1 2588   8.684   3.016   9.685
  173LIG    HB2 2589   8.588   3.142   9.719
  173LIG     CG 2590   8.498   3.003   9.598
  173LIG    OD1 2591   8.532   2.888   9.535
  173LIG    OD2 2592   8.400   3.070   9.566
  173LIG      C 2593   8.552   2.823   9.822
  173LIG    OT1 2594   8.635   2.752   9.904
  173LIG    OT2 2595   8.470   2.769   9.727
  174LIG      N 2596   4.568   8.117   6.887
  174LIG     H1 2597   4.562   8.202   6.940
  174LIG     H2 2598   4.642   8.125   6.820
  174LIG     H3 2599   4.481   8.102   6.839
  174LIG     CA 2600   4.595   8.000   6.980
  174LIG     HA 2601   4.681   8.016   7.028
  174LIG     CB 2602   4.483   7.992   7.081
  174LIG    HB1 2603   4.395   7.979   7.033
  174LIG    HB2 2604   4.478   8.076   7.134
  174LIG     CG 2605   4.505   7.876   7.174
  174LIG    OD1 2606   4.458   7.758   7.130
  174LIG    OD2 2607   4.562   7.889   7.283
  174LIG      C 2608   4.603   7.869   6.899
  174LIG    OT1 2609   4.586   7.877   6.763
  174LIG    OT2 2610   4.627   7.754   6.969
  175LIG      N 2611   5.937   8.735   8.254
  175LIG     H1 2612   6.000   8.658   8.263
  175LIG     H2 2613   5.876   8.738   8.333
  175LIG     H3 2614   5.884   8.724   8.170
  175LIG     CA 2615   6.016   8.865   8.246
  175LIG     HA 2616   6.070   8.876   8.329
  175LIG     CB 2617   6.109   8.859   8.127
  175LIG    HB1 2618   6.055   8.845   8.043
  175LIG    HB2 2619   6.172   8.783   8.138
  175LIG     CG 2620   6.187   8.986   8.116
  175LIG    OD1 2621   6.126   9.085   8.047
  175LIG    OD2 2622   6.300   8.999   8.164
  175LIG      C 2623   5.919   8.985   8.232
  175LIG    OT1 2624   5.785   8.957   8.228
  175LIG    OT2 2625   5.975   9.109   8.224
  176LIG      N 2626   1.620   0.281   8.279
  176LIG     H1 2627   1.612   0.373   8.318
  176LIG     H2 2628   1.647   0.288   8.183
  176LIG     H3 2629   1.531   0.235   8.286
  176LIG     CA 2630   1.724   0.201   8.356
  176LIG     HA 2631   1.812   0.247   8.350
  176LIG     CB 2632   1.682   0.193   8.501
  176LIG    HB1 2633   1.592   0.149   8.507
  176LIG    HB2 2634   1.676   0.285   8.539
  176LIG     CG 2635   1.781   0.114   8.580
  176LIG    OD1 2636   1.761  -0.019   8.580
  176LIG    OD2 2637   1.874   0.167   8.641
  176LIG      C 2638   1.736   0.058   8.296
  176LIG    OT1 2639   1.655   0.028   8.190
  176LIG    OT2 2640   1.825  -0.026   8.355
  177LIG      N 2641   4.924   0.757   9.590
  177LIG     H1 2642   4.859   0.832   9.600
  177LIG     H2 2643   4.942   0.742   9.492
  177LIG     H3 2644   4.885   0.674   9.630
  177LIG     CA 2645   5.054   0.791   9.661
  177LIG     HA 2646   5.092   0.874   9.622
  177LIG     CB 2647   5.024   0.814   9.807
  177LIG    HB1 2648   4.982   0.732   9.847
  177LIG    HB2 2649   4.960   0.890   9.817
  177LIG     CG 2650   5.150   0.847   9.882
  177LIG    OD1 2651   5.219   0.740   9.926
  177LIG    OD2 2652   5.187   0.963   9.902
  177LIG      C 2653   5.155   0.674   9.646
  177LIG    OT1 2654   5.114   0.565   9.574
  177LIG    OT2 2655   5.277   0.690   9.705
  178LIG      N 2656   8.284   9.497   7.085
  178LIG     H1 2657   8.230   9.552   7.150
  178LIG     H2 2658   8.311   9.554   7.008
  178LIG     H3 2659   8.228   9.421   7.052
  178LIG     CA 2660   8.408   9.442   7.154
  178LIG     HA 2661   8.463   9.518   7.188
  178LIG     CB 2662   8.364   9.357   7.272
  178LIG    HB1 2663   8.306   9.282   7.239
  178LIG    HB2 2664   8.312   9.413   7.336
  178LIG     CG 2665   8.484   9.300   7.342
  178LIG    OD1 2666   8.530   9.184   7.290
  178LIG    OD2 2667   8.535   9.355   7.439
  178LIG      C 2668   8.491   9.357   7.055
  178LIG    OT1 2669   8.443   9.345   6.927
  178LIG    OT2 2670   8.606   9.301   7.102
  179LIG      N 2671   8.602   3.695   0.597
  179LIG     H1 2672   8.634   3.606   0.628
  179LIG     H2 2673   8.621   3.764   0.668
  179LIG     H3 2674   8.504   3.692   0.579
  179LIG     CA 2675   8.676   3.734   0.470
  179LIG     HA 2676   8.774   3.737   0.488
  179LIG     CB 2677   8.648   3.629   0.364
  179LIG    HB1 2678   8.549   3.623   0.348
  179LIG    HB2 2679   8.681   3.540   0.396
  179LIG     CG 2680   8.718   3.664   0.236
  179LIG    OD1 2681   8.649   3.746   0.155
  179LIG    OD2 2682   8.829   3.620   0.208
  179LIG      C 2683   8.627   3.872   0.420
  179LIG    OT1 2684   8.532   3.936   0.495
  179LIG    OT2 2685   8.684   3.921   0.306
  180LIG      N 2686   7.881   7.154   9.031
  180LIG     H1 2687   7.902   7.155   8.933
  180LIG     H2 2688   7.787   7.124   9.045
  180LIG     H3 2689   7.893   7.246   9.069
  180LIG     CA 2690   7.976   7.059   9.103
  180LIG     HA 2691   7.965   6.967   9.065
  180LIG     CB 2692   8.118   7.105   9.080
  180LIG    HB1 2693   8.129   7.199   9.115
  180LIG    HB2 2694   8.138   7.105   8.982
  180LIG     CG 2695   8.214   7.014   9.150
  180LIG    OD1 2696   8.238   7.046   9.279
  180LIG    OD2 2697   8.268   6.919   9.094
  180LIG      C 2698   7.944   7.057   9.255
  180LIG    OT1 2699   7.842   7.137   9.298
  180LIG    OT2 2700   8.021   6.976   9.333
  181LIG      N 2701   1.053   2.018   0.546
  181LIG     H1 2702   0.985   2.081   0.583
  181LIG     H2 2703   1.069   2.038   0.450
  181LIG     H3 2704   1.019   1.924   0.556
  181LIG     CA 2705   1.183   2.032   0.624
  181LIG     HA 2706   1.216   2.126   0.615
  181LIG     CB 2707   1.157   2.003   0.770
  181LIG    HB1 2708   1.120   1.910   0.779
  181LIG    HB2 2709   1.089   2.067   0.805
  181LIG     CG 2710   1.283   2.015   0.849
  181LIG    OD1 2711   1.359   1.903   0.853
  181LIG    OD2 2712   1.315   2.119   0.907
  181LIG      C 2713   1.289   1.934   0.568
  181LIG    OT1 2714   1.251   1.853   0.464
  181LIG    OT2 2715   1.412   1.935   0.627
  182LIG      N 2716   0.799   1.567   4.839
  182LIG     H1 2717   0.858   1.642   4.808
  182LIG     H2 2718   0.799   1.564   4.939
  182LIG     H3 2719   0.833   1.480   4.803
  182LIG     CA 2720   0.658   1.591   4.789
  182LIG     HA 2721   0.624   1.677   4.824
  182LIG     CB 2722   0.660   1.596   4.638
  182LIG    HB1 2723   0.696   1.510   4.601
  182LIG    HB2 2724   0.718   1.671   4.608
  182LIG     CG 2725   0.522   1.618   4.584
  182LIG    OD1 2726   0.450   1.505   4.566
  182LIG    OD2 2727   0.478   1.730   4.558
  182LIG      C 2728   0.565   1.475   4.836
  182LIG    OT1 2729   0.622   1.376   4.911
  182LIG    OT2 2730   0.434   1.482   4.799
  183LIG      N 2731   8.179   5.698   4.986
  183LIG     H1 2732   8.126   5.733   5.064
  183LIG     H2 2733   8.155   5.750   4.904
  183LIG     H3 2734   8.158   5.601   4.973
  183LIG     CA 2735   8.327   5.715   5.015
  183LIG     HA 2736   8.348   5.811   5.029
  183LIG     CB 2737   8.362   5.638   5.140
  183LIG    HB1 2738   8.339   5.541   5.128
  183LIG    HB2 2739   8.309   5.673   5.217
  183LIG     CG 2740   8.508   5.650   5.171
  183LIG    OD1 2741   8.587   5.560   5.109
  183LIG    OD2 2742   8.552   5.736   5.247
  183LIG      C 2743   8.410   5.661   4.895
  183LIG    OT1 2744   8.341   5.610   4.789
  183LIG    OT2 2745   8.546   5.668   4.906
  184LIG      N 2746   6.668   1.659   3.863
  184LIG     H1 2747   6.709   1.697   3.780
  184LIG     H2 2748   6.569   1.651   3.852
  184LIG     H3 2749   6.688   1.720   3.940
  184LIG     CA 2750   6.728   1.522   3.891
  184LIG     HA 2751   6.708   1.461   3.814
  184LIG     CB 2752   6.877   1.536   3.907
  184LIG    HB1 2753   6.898   1.599   3.982
  184LIG    HB2 2754   6.917   1.572   3.823
  184LIG     CG 2755   6.939   1.402   3.936
  184LIG    OD1 2756   6.941   1.368   4.066
  184LIG    OD2 2757   6.986   1.331   3.847
  184LIG      C 2758   6.666   1.463   4.021
  184LIG    OT1 2759   6.573   1.539   4.086
  184LIG    OT2 2760   6.709   1.339   4.059
  185LIG      N 2761   7.975   5.297   2.630
  185LIG     H1 2762   7.952   5.314   2.534
  185LIG     H2 2763   8.060   5.244   2.635
  185LIG     H3 2764   7.901   5.246   2.673
  185LIG     CA 2765   7.994   5.429   2.702
  185LIG     HA 2766   8.067   5.481   2.658
  185LIG     CB 2767   7.866   5.509   2.692
  185LIG    HB1 2768   7.790   5.457   2.733
  185LIG    HB2 2769   7.844   5.526   2.596
  185LIG     CG 2770   7.879   5.640   2.763
  185LIG    OD1 2771   7.852   5.635   2.896
  185LIG    OD2 2772   7.912   5.743   2.706
  185LIG      C 2773   8.029   5.404   2.851
  185LIG    OT1 2774   8.038   5.274   2.892
  185LIG    OT2 2775   8.049   5.514   2.929
  186LIG      N 2776   0.077   7.748   7.169
  186LIG     H1 2777   0.044   7.658   7.196
  186LIG     H2 2778   0.134   7.738   7.087
  186LIG     H3 2779   0.132   7.787   7.243
  186LIG     CA 2780  -0.040   7.839   7.139
  186LIG     HA 2781  -0.095   7.800   7.066
  186LIG     CB 2782  -0.126   7.851   7.263
  186LIG    HB1 2783  -0.071   7.888   7.339
  186LIG    HB2 2784  -0.160   7.761   7.290
  186LIG     CG 2785  -0.242   7.942   7.239
  186LIG    OD1 2786  -0.217   8.073   7.259
  186LIG    OD2 2787  -0.352   7.900   7.203
  186LIG      C 2788   0.011   7.979   7.097
  186LIG    OT1 2789   0.147   7.998   7.093
  186LIG    OT2 2790  -0.083   8.073   7.067
  187LIG      N 2791   4.766   9.979   6.185
  187LIG     H1 2792   4.717   9.892   6.195
  187LIG     H2 2793   4.836   9.986   6.256
  187LIG     H3 2794   4.701  10.055   6.193
  187LIG     CA 2795   4.832   9.984   6.048
  187LIG     HA 2796   4.896   9.908   6.039
  187LIG     CB 2797   4.725   9.971   5.942
  187LIG    HB1 2798   4.659  10.046   5.952
  187LIG    HB2 2799   4.677   9.884   5.952
  187LIG     CG 2800   4.786   9.978   5.805
  187LIG    OD1 2801   4.803  10.103   5.756
  187LIG    OD2 2802   4.818   9.877   5.742
  187LIG      C 2803   4.908  10.118   6.031
  187LIG    OT1 2804   4.904  10.206   6.136
  187LIG    OT2 2805   4.973  10.138   5.913
  188LIG      N 2806   8.550   5.750   9.075
  188LIG     H1 2807   8.645   5.780   9.084
  188LIG     H2 2808   8.538   5.701   8.988
  188LIG     H3 2809   8.489   5.830   9.078
  188LIG     CA 2810   8.515   5.657   9.191
  188LIG     HA 2811   8.575   5.578   9.189
  188LIG     CB 2812   8.534   5.732   9.321
  188LIG    HB1 2813   8.476   5.814   9.322
  188LIG    HB2 2814   8.629   5.760   9.329
  188LIG     CG 2815   8.499   5.644   9.437
  188LIG    OD1 2816   8.368   5.645   9.471
  188LIG    OD2 2817   8.583   5.578   9.497
  188LIG      C 2818   8.367   5.611   9.178
  188LIG    OT1 2819   8.295   5.658   9.071
  188LIG    OT2 2820   8.320   5.527   9.275
  189LIG      N 2821   1.778   2.746   2.992
  189LIG     H1 2822   1.768   2.845   3.004
  189LIG     H2 2823   1.789   2.702   3.081
  189LIG     H3 2824   1.857   2.726   2.934
  189LIG     CA 2825   1.652   2.691   2.925
  189LIG     HA 2826   1.573   2.711   2.982
  189LIG     CB 2827   1.635   2.759   2.791
  189LIG    HB1 2828   1.716   2.742   2.734
  189LIG    HB2 2829   1.625   2.857   2.804
  189LIG     CG 2830   1.513   2.707   2.721
  189LIG    OD1 2831   1.534   2.595   2.648
  189LIG    OD2 2832   1.404   2.762   2.730
  189LIG      C 2833   1.666   2.538   2.905
  189LIG    OT1 2834   1.781   2.479   2.949
  189LIG    OT2 2835   1.561   2.473   2.846
  190LIG      N 2836   8.771   1.215   0.247
  190LIG     H1 2837   8.690   1.206   0.189
  190LIG     H2 2838   8.748   1.265   0.330
  190LIG     H3 2839   8.843   1.264   0.197
  190LIG     CA 2840   8.822   1.076   0.284
  190LIG     HA 2841   8.751   1.027   0.333
  190LIG     CB 2842   8.855   1.001   0.157
  190LIG    HB1 2843   8.925   1.052   0.105
  190LIG    HB2 2844   8.774   0.992   0.100
  190LIG     CG 2845   8.907   0.864   0.189
  190LIG    OD1 2846   9.040   0.858   0.213
  190LIG    OD2 2847   8.835   0.765   0.192
  190LIG      C 2848   8.949   1.088   0.373
  190LIG    OT1 2849   8.992   1.214   0.403
  190LIG    OT2 2850   9.006   0.972   0.414
  191LIG      N 2851   9.979   5.359   2.280
  191LIG     H1 2852  10.028   5.408   2.208
  191LIG     H2 2853  10.043   5.303   2.332
  191LIG     H3 2854   9.909   5.300   2.238
  191LIG     CA 2855   9.911   5.458   2.373
  191LIG     HA 2856   9.980   5.517   2.414
  191LIG     CB 2857   9.816   5.543   2.292
  191LIG    HB1 2858   9.747   5.484   2.248
  191LIG    HB2 2859   9.865   5.593   2.222
  191LIG     CG 2860   9.746   5.641   2.381
  191LIG    OD1 2861   9.634   5.594   2.441
  191LIG    OD2 2862   9.787   5.756   2.397
  191LIG      C 2863   9.834   5.382   2.484
  191LIG    OT1 2864   9.839   5.246   2.481
  191LIG    OT2 2865   9.768   5.458   2.576
  192LIG      N 2866   1.162   2.382   5.666
  192LIG     H1 2867   1.254   2.343   5.655
  192LIG     H2 2868   1.114   2.380   5.578
  192LIG     H3 2869   1.169   2.476   5.699
  192LIG     CA 2870   1.084   2.299   5.767
  192LIG     HA 2871   1.078   2.204   5.735
  192LIG     CB 2872   1.158   2.300   5.899
  192LIG    HB1 2873   1.168   2.395   5.931
  192LIG    HB2 2874   1.249   2.261   5.887
  192LIG     CG 2875   1.084   2.221   6.002
  192LIG    OD1 2876   0.989   2.289   6.068
  192LIG    OD2 2877   1.109   2.102   6.024
  192LIG      C 2878   0.942   2.357   5.786
  192LIG    OT1 2879   0.910   2.468   5.712
  192LIG    OT2 2880   0.859   2.293   5.873
  193LIG      N 2881   8.007   2.972  10.027
  193LIG     H1 2882   7.981   3.023   9.945
  193LIG     H2 2883   7.958   3.008  10.106
  193LIG     H3 2884   8.105   2.979  10.042
  193LIG     CA 2885   7.971   2.825  10.008
  193LIG     HA 2886   7.872   2.817   9.992
  193LIG     CB 2887   8.044   2.772   9.887
  193LIG    HB1 2888   8.143   2.782   9.901
  193LIG    HB2 2889   8.018   2.823   9.806
  193LIG     CG 2890   8.012   2.627   9.866
  193LIG    OD1 2891   8.090   2.541   9.936
  193LIG    OD2 2892   7.923   2.590   9.790
  193LIG      C 2893   8.010   2.744  10.134
  193LIG    OT1 2894   8.068   2.813  10.237
  193LIG    OT2 2895   7.984   2.610  10.133
  194LIG      N 2896   5.727   8.715   1.508
  194LIG     H1 2897   5.731   8.680   1.602
  194LIG     H2 2898   5.713   8.638   1.445
  194LIG     H3 2899   5.813   8.761   1.486
  194LIG     CA 2900   5.612   8.814   1.495
  194LIG     HA 2901   5.527   8.768   1.517
  194LIG     CB 2902   5.635   8.928   1.591
  194LIG    HB1 2903   5.722   8.973   1.571
  194LIG    HB2 2904   5.637   8.893   1.685
  194LIG     CG 2905   5.524   9.028   1.580
  194LIG    OD1 2906   5.542   9.122   1.485
  194LIG    OD2 2907   5.425   9.026   1.653
  194LIG      C 2908   5.606   8.868   1.349
  194LIG    OT1 2909   5.699   8.821   1.261
  194LIG    OT2 2910   5.508   8.958   1.321
  195LIG      N 2911   9.670   9.334   4.556
  195LIG     H1 2912   9.662   9.414   4.495
  195LIG     H2 2913   9.621   9.257   4.517
  195LIG     H3 2914   9.632   9.357   4.646
  195LIG     CA 2915   9.817   9.298   4.573
  195LIG     HA 2916   9.856   9.276   4.484
  195LIG     CB 2917   9.891   9.416   4.631
  195LIG    HB1 2918   9.850   9.441   4.720
  195LIG    HB2 2919   9.883   9.494   4.570
  195LIG     CG 2920  10.036   9.383   4.650
  195LIG    OD1 2921  10.065   9.323   4.768
  195LIG    OD2 2922  10.121   9.410   4.566
  195LIG      C 2923   9.831   9.175   4.667
  195LIG    OT1 2924   9.715   9.122   4.718
  195LIG    OT2 2925   9.957   9.130   4.692
  196LIG      N 2926   2.045   2.829   2.780
  196LIG     H1 2927   1.999   2.914   2.806
  196LIG     H2 2928   2.052   2.824   2.680
  196LIG     H3 2929   1.991   2.751   2.814
  196LIG     CA 2930   2.184   2.825   2.841
  196LIG     HA 2931   2.237   2.902   2.808
  196LIG     CB 2932   2.171   2.833   2.991
  196LIG    HB1 2933   2.116   2.757   3.025
  196LIG    HB2 2934   2.127   2.919   3.017
  196LIG     CG 2935   2.306   2.828   3.055
  196LIG    OD1 2936   2.353   2.703   3.079
  196LIG    OD2 2937   2.370   2.929   3.085
  196LIG      C 2938   2.255   2.692   2.801
  196LIG    OT1 2939   2.185   2.605   2.722
  196LIG    OT2 2940   2.381   2.674   2.849
  197LIG      N 2941   9.566   4.091   7.487
  197LIG     H1 2942   9.507   4.152   7.433
  197LIG     H2 2943   9.512   4.044   7.556
  197LIG     H3 2944   9.638   4.145   7.531
  197LIG     CA 2945   9.631   3.989   7.395
  197LIG     HA 2946   9.560   3.935   7.350
  197LIG     CB 2947   9.711   4.062   7.290
  197LIG    HB1 2948   9.782   4.118   7.334
  197LIG    HB2 2949   9.652   4.121   7.236
  197LIG     CG 2950   9.778   3.964   7.197
  197LIG    OD1 2951   9.898   3.918   7.240
  197LIG    OD2 2952   9.727   3.929   7.091
  197LIG      C 2953   9.723   3.894   7.476
  197LIG    OT1 2954   9.732   3.917   7.611
  197LIG    OT2 2955   9.789   3.797   7.407
  198LIG      N 2956   0.731   4.155   3.044
  198LIG     H1 2957   0.671   4.225   3.084
  198LIG     H2 2958   0.769   4.098   3.117
  198LIG     H3 2959   0.805   4.199   2.994
  198LIG     CA 2960   0.650   4.068   2.949
  198LIG     HA 2961   0.575   4.025   2.999
  198LIG     CB 2962   0.592   4.156   2.841
  198LIG    HB1 2963   0.666   4.202   2.791
  198LIG    HB2 2964   0.532   4.225   2.881
  198LIG     CG 2965   0.513   4.073   2.744
  198LIG    OD1 2966   0.585   4.019   2.644
  198LIG    OD2 2967   0.391   4.058   2.754
  198LIG      C 2968   0.741   3.959   2.886
  198LIG    OT1 2969   0.873   3.959   2.925
  198LIG    OT2 2970   0.683   3.873   2.798
  199LIG      N 2971   4.840   5.220   0.791
  199LIG     H1 2972   4.810   5.180   0.877
  199LIG     H2 2973   4.901   5.157   0.743
  199LIG     H3 2974   4.888   5.306   0.809
  199LIG     CA 2975   4.718   5.249   0.704
  199LIG     HA 2976   4.669   5.164   0.686
  199LIG     CB 2977   4.627   5.344   0.778
  199LIG    HB1 2978   4.677   5.429   0.799
  199LIG    HB2 2979   4.597   5.303   0.864
  199LIG     CG 2980   4.507   5.376   0.695
  199LIG    OD1 2981   4.523   5.479   0.609
  199LIG    OD2 2982   4.401   5.314   0.705
  199LIG      C 2983   4.763   5.313   0.570
  199LIG    OT1 2984   4.898   5.332   0.551
  199LIG    OT2 2985   4.665   5.345   0.481
  200LIG      N 2986   7.405  -0.001   7.950
  200LIG     H1 2987   7.363   0.047   7.873
  200LIG     H2 2988   7.403  -0.100   7.933
  200LIG     H3 2989   7.355   0.020   8.034
  200LIG     CA 2990   7.549   0.044   7.966
  200LIG     HA 2991   7.600   0.025   7.882
  200LIG     CB 2992   7.551   0.194   7.990
  200LIG    HB1 2993   7.498   0.215   8.073
  200LIG    HB2 2994   7.510   0.241   7.913
  200LIG     CG 2995   7.692   0.242   8.008
  200LIG    OD1 2996   7.739   0.233   8.134
  200LIG    OD2 2997   7.758   0.287   7.915
  200LIG      C 2998   7.616  -0.030   8.085
  200LIG    OT1 2999   7.538  -0.119   8.154
  200LIG    OT2 3000   7.746   0.001   8.112
  201LIG      N 3001   9.623   1.068   7.332
  201LIG     H1 3002   9.590   1.123   7.255
  201LIG     H2 3003   9.575   0.980   7.334
  201LIG     H3 3004   9.605   1.117   7.418
  201LIG     CA 3005   9.772   1.044   7.319
  201LIG     HA 3006   9.790   0.996   7.233
  201LIG     CB 3007   9.843   1.178   7.315
  201LIG    HB1 3008   9.823   1.229   7.400
  201LIG    HB2 3009   9.811   1.231   7.238
  201LIG     CG 3010   9.991   1.159   7.303
  201LIG    OD1 3011  10.056   1.141   7.421
  201LIG    OD2 3012  10.049   1.159   7.195
  201LIG      C 3013   9.824   0.960   7.438
  201LIG    OT1 3014   9.732   0.922   7.532
  201LIG    OT2 3015   9.957   0.930   7.440
  202LIG      N 3016   7.217   9.604   1.748
  202LIG     H1 3017   7.160   9.677   1.786
  202LIG     H2 3018   7.194   9.592   1.651
  202LIG     H3 3019   7.199   9.519   1.797
  202LIG     CA 3020   7.364   9.640   1.762
  202LIG     HA 3021   7.382   9.725   1.713
  202LIG     CB 3022   7.395   9.659   1.908
  202LIG    HB1 3023   7.375   9.575   1.959
  202LIG    HB2 3024   7.339   9.733   1.946
  202LIG     CG 3025   7.540   9.694   1.927
  202LIG    OD1 3026   7.623   9.587   1.935
  202LIG    OD2 3027   7.580   9.810   1.934
  202LIG      C 3028   7.452   9.527   1.703
  202LIG    OT1 3029   7.388   9.418   1.650
  202LIG    OT2 3030   7.587   9.544   1.708
  203LIG      N 3031   1.656   0.868   3.118
  203LIG     H1 3032   1.750   0.894   3.140
  203LIG     H2 3033   1.594   0.902   3.189
  203LIG     H3 3034   1.649   0.768   3.112
  203LIG     CA 3035   1.617   0.928   2.984
  203LIG     HA 3036   1.625   1.028   2.989
  203LIG     CB 3037   1.712   0.877   2.878
  203LIG    HB1 3038   1.708   0.777   2.874
  203LIG    HB2 3039   1.806   0.904   2.901
  203LIG     CG 3040   1.677   0.934   2.744
  203LIG    OD1 3041   1.583   0.864   2.676
  203LIG    OD2 3042   1.729   1.036   2.699
  203LIG      C 3043   1.472   0.889   2.948
  203LIG    OT1 3044   1.404   0.810   3.037
  203LIG    OT2 3045   1.422   0.936   2.830
  204LIG      N 3046   0.073   3.730   1.655
  204LIG     H1 3047   0.107   3.658   1.716
  204LIG     H2 3048   0.149   3.788   1.626
  204LIG     H3 3049   0.005   3.785   1.704
  204LIG     CA 3050   0.007   3.667   1.533
  204LIG     HA 3051   0.074   3.612   1.485
  204LIG     CB 3052  -0.106   3.578   1.579
  204LIG    HB1 3053  -0.173   3.633   1.630
  204LIG    HB2 3054  -0.071   3.506   1.638
  204LIG     CG 3055  -0.175   3.516   1.461
  204LIG    OD1 3056  -0.272   3.591   1.405
  204LIG    OD2 3057  -0.144   3.404   1.419
  204LIG      C 3058  -0.047   3.778   1.439
  204LIG    OT1 3059  -0.028   3.908   1.478
  204LIG    OT2 3060  -0.109   3.738   1.325
  205LIG      N 3061   4.273   1.048   3.566
  205LIG     H1 3062   4.306   1.131   3.610
  205LIG     H2 3063   4.183   1.065   3.525
  205LIG     H3 3064   4.266   0.974   3.634
  205LIG     CA 3065   4.370   1.006   3.457
  205LIG     HA 3066   4.377   1.079   3.389
  205LIG     CB 3067   4.506   0.982   3.519
  205LIG    HB1 3068   4.498   0.910   3.589
  205LIG    HB2 3069   4.538   1.066   3.562
  205LIG     CG 3070   4.604   0.939   3.415
  205LIG    OD1 3071   4.606   0.806   3.390
  205LIG    OD2 3072   4.678   1.018   3.357
  205LIG      C 3073   4.320   0.876   3.388
  205LIG    OT1 3074   4.202   0.822   3.433
  205LIG    OT2 3075   4.397   0.825   3.287
  206LIG      N 3076   1.186   3.517   2.540
  206LIG     H1 3077   1.156   3.424   2.562
  206LIG     H2 3078   1.286   3.520   2.537
  206LIG     H3 3079   1.152   3.580   2.610
  206LIG     CA 3080   1.129   3.558   2.405
  206LIG     HA 3081   1.162   3.496   2.335
  206LIG     CB 3082   0.978   3.551   2.411
  206LIG    HB1 3083   0.945   3.612   2.484
  206LIG    HB2 3084   0.950   3.458   2.432
  206LIG     CG 3085   0.919   3.593   2.280
  206LIG    OD1 3086   0.900   3.726   2.266
  206LIG    OD2 3087   0.889   3.512   2.193
  206LIG      C 3088   1.174   3.703   2.371
  206LIG    OT1 3089   1.253   3.767   2.462
  206LIG    OT2 3090   1.131   3.755   2.253
  207LIG      N 3091   7.687   1.473   9.948
  207LIG     H1 3092   7.590   1.494   9.938
  207LIG     H2 3093   7.738   1.557   9.968
  207LIG     H3 3094   7.721   1.432   9.863
  207LIG     CA 3095   7.707   1.374  10.061
  207LIG     HA 3096   7.673   1.413  10.146
  207LIG     CB 3097   7.629   1.248  10.031
  207LIG    HB1 3098   7.661   1.209   9.944
  207LIG    HB2 3099   7.532   1.269  10.022
  207LIG     CG 3100   7.647   1.147  10.140
  207LIG    OD1 3101   7.756   1.068  10.127
  207LIG    OD2 3102   7.569   1.137  10.234
  207LIG      C 3103   7.858   1.340  10.077
  207LIG    OT1 3104   7.944   1.401   9.990
  207LIG    OT2 3105   7.892   1.252  10.175
  208LIG      N 3106   3.643   8.315   9.405
  208LIG     H1 3107   3.611   8.295   9.311
  208LIG     H2 3108   3.637   8.231   9.460
  208LIG     H3 3109   3.584   8.385   9.445
  208LIG     CA 3110   3.786   8.364   9.401
  208LIG     HA 3111   3.844   8.294   9.360
  208LIG     CB 3112   3.793   8.490   9.316
  208LIG    HB1 3113   3.732   8.560   9.355
  208LIG    HB2 3114   3.762   8.469   9.224
  208LIG     CG 3115   3.933   8.542   9.312
  208LIG    OD1 3116   3.966   8.625   9.414
  208LIG    OD2 3117   4.011   8.514   9.221
  208LIG      C 3118   3.835   8.395   9.545
  208LIG    OT1 3119   3.747   8.374   9.647
  208LIG    OT2 3120   3.963   8.441   9.558
  209LIG      N 3121   5.936   5.485   0.650
  209LIG     H1 3122   5.901   5.576   0.671
  209LIG     H2 3123   5.960   5.479   0.553
  209LIG     H3 3124   5.866   5.417   0.672
  209LIG     CA 3125   6.059   5.458   0.735
  209LIG     HA 3126   6.129   5.527   0.714
  209LIG     CB 3127   6.022   5.469   0.881
  209LIG    HB1 3128   5.950   5.402   0.902
  209LIG    HB2 3129   5.988   5.560   0.900
  209LIG     CG 3130   6.141   5.442   0.967
  209LIG    OD1 3131   6.163   5.311   0.995
  209LIG    OD2 3132   6.214   5.532   1.010
  209LIG      C 3133   6.115   5.316   0.704
  209LIG    OT1 3134   6.047   5.242   0.611
  209LIG    OT2 3135   6.226   5.277   0.772
  210LIG      N 3136   8.758   2.364   3.822
  210LIG     H1 3137   8.840   2.369   3.764
  210LIG     H2 3138   8.783   2.392   3.916
  210LIG     H3 3139   8.723   2.271   3.823
  210LIG     CA 3140   8.651   2.458   3.769
  210LIG     HA 3141   8.687   2.551   3.767
  210LIG     CB 3142   8.617   2.417   3.627
  210LIG    HB1 3143   8.584   2.322   3.627
  210LIG    HB2 3144   8.698   2.423   3.570
  210LIG     CG 3145   8.510   2.506   3.571
  210LIG    OD1 3146   8.384   2.468   3.600
  210LIG    OD2 3147   8.536   2.605   3.503
  210LIG      C 3148   8.525   2.451   3.858
  210LIG    OT1 3149   8.529   2.367   3.966
  210LIG    OT2 3150   8.419   2.530   3.823
  211LIG      N 3151   6.689   1.303   9.730
  211LIG     H1 3152   6.645   1.219   9.698
  211LIG     H2 3153   6.696   1.302   9.830
  211LIG     H3 3154   6.634   1.382   9.701
  211LIG     CA 3155   6.827   1.314   9.669
  211LIG     HA 3156   6.882   1.235   9.697
  211LIG     CB 3157   6.815   1.314   9.518
  211LIG    HB1 3158   6.758   1.392   9.489
  211LIG    HB2 3159   6.772   1.229   9.488
  211LIG     CG 3160   6.950   1.326   9.455
  211LIG    OD1 3161   6.994   1.453   9.439
  211LIG    OD2 3162   7.015   1.228   9.419
  211LIG      C 3163   6.896   1.445   9.717
  211LIG    OT1 3164   6.825   1.525   9.801
  211LIG    OT2 3165   7.022   1.469   9.670
  212LIG      N 3166   7.408   0.697   8.362
  212LIG     H1 3167   7.372   0.790   8.365
  212LIG     H2 3168   7.490   0.694   8.306
  212LIG     H3 3169   7.338   0.636   8.323
  212LIG     CA 3170   7.441   0.651   8.503
  212LIG     HA 3171   7.509   0.712   8.542
  212LIG     CB 3172   7.315   0.656   8.587
  212LIG    HB1 3173   7.245   0.597   8.546
  212LIG    HB2 3174   7.281   0.750   8.590
  212LIG     CG 3175   7.344   0.610   8.727
  212LIG    OD1 3176   7.335   0.477   8.745
  212LIG    OD2 3177   7.372   0.688   8.818
  212LIG      C 3178   7.496   0.506   8.500
  212LIG    OT1 3179   7.506   0.445   8.377
  212LIG    OT2 3180   7.530   0.450   8.619
  213LIG      N 3181   0.366   0.574   2.076
  213LIG     H1 3182   0.387   0.480   2.104
  213LIG     H2 3183   0.420   0.638   2.130
  213LIG     H3 3184   0.268   0.591   2.089
  213LIG     CA 3185   0.400   0.591   1.928
  213LIG     HA 3186   0.497   0.572   1.914
  213LIG     CB 3187   0.319   0.491   1.848
  213LIG    HB1 3188   0.221   0.507   1.864
  213LIG    HB2 3189   0.341   0.398   1.877
  213LIG     CG 3190   0.348   0.506   1.702
  213LIG    OD1 3191   0.274   0.599   1.638
  213LIG    OD2 3192   0.433   0.438   1.644
  213LIG      C 3193   0.366   0.735   1.883
  213LIG    OT1 3194   0.315   0.820   1.977
  213LIG    OT2 3195   0.391   0.766   1.752
  214LIG      N 3196   7.523   0.549   1.742
  214LIG     H1 3197   7.618   0.565   1.771
  214LIG     H2 3198   7.523   0.490   1.661
  214LIG     H3 3199   7.479   0.636   1.721
  214LIG     CA 3200   7.447   0.480   1.854
  214LIG     HA 3201   7.491   0.394   1.876
  214LIG     CB 3202   7.449   0.569   1.976
  214LIG    HB1 3203   7.407   0.658   1.954
  214LIG    HB2 3204   7.543   0.585   2.005
  214LIG     CG 3205   7.373   0.506   2.089
  214LIG    OD1 3206   7.240   0.531   2.089
  214LIG    OD2 3207   7.428   0.437   2.175
  214LIG      C 3208   7.300   0.454   1.810
  214LIG    OT1 3209   7.265   0.495   1.684
  214LIG    OT2 3210   7.218   0.393   1.900
  215LIG      N 3211   2.554   1.184   8.577
  215LIG     H1 3212   2.528   1.205   8.671
  215LIG     H2 3213   2.612   1.257   8.542
  215LIG     H3 3214   2.473   1.174   8.520
  215LIG     CA 3215   2.632   1.052   8.575
  215LIG     HA 3216   2.713   1.061   8.632
  215LIG     CB 3217   2.543   0.943   8.630
  215LIG    HB1 3218   2.460   0.936   8.575
  215LIG    HB2 3219   2.518   0.964   8.724
  215LIG     CG 3220   2.615   0.812   8.628
  215LIG    OD1 3221   2.606   0.744   8.511
  215LIG    OD2 3222   2.678   0.769   8.725
  215LIG      C 3223   2.673   1.018   8.429
  215LIG    OT1 3224   2.636   1.107   8.331
  215LIG    OT2 3225   2.743   0.903   8.410
  216LIG      N 3226   3.648   9.810   1.529
  216LIG     H1 3227   3.725   9.832   1.589
  216LIG     H2 3228   3.565   9.852   1.566
  216LIG     H3 3229   3.636   9.711   1.525
  216LIG     CA 3230   3.674   9.863   1.389
  216LIG     HA 3231   3.686   9.962   1.393
  216LIG     CB 3232   3.800   9.799   1.336
  216LIG    HB1 3233   3.790   9.699   1.334
  216LIG    HB2 3234   3.877   9.822   1.395
  216LIG     CG 3235   3.829   9.848   1.197
  216LIG    OD1 3236   3.767   9.778   1.099
  216LIG    OD2 3237   3.903   9.943   1.174
  216LIG      C 3238   3.554   9.829   1.296
  216LIG    OT1 3239   3.449   9.760   1.352
  216LIG    OT2 3240   3.563   9.869   1.167
  217LIG      N 3241   9.426   6.762   4.635
  217LIG     H1 3242   9.445   6.831   4.565
  217LIG     H2 3243   9.330   6.735   4.631
  217LIG     H3 3244   9.446   6.801   4.725
  217LIG     CA 3245   9.515   6.641   4.612
  217LIG     HA 3246   9.496   6.603   4.521
  217LIG     CB 3247   9.660   6.684   4.617
  217LIG    HB1 3248   9.679   6.725   4.707
  217LIG    HB2 3249   9.677   6.752   4.547
  217LIG     CG 3250   9.750   6.567   4.596
  217LIG    OD1 3251   9.779   6.497   4.708
  217LIG    OD2 3252   9.795   6.537   4.485
  217LIG      C 3253   9.487   6.534   4.720
  217LIG    OT1 3254   9.393   6.563   4.815
  217LIG    OT2 3255   9.559   6.418   4.713
  218LIG      N 3256   1.098   7.631   8.429
  218LIG     H1 3257   1.056   7.541   8.428
  218LIG     H2 3258   1.035   7.698   8.388
  218LIG     H3 3259   1.183   7.629   8.377
  218LIG     CA 3260   1.128   7.672   8.572
  218LIG     HA 3261   1.043   7.674   8.625
  218LIG     CB 3262   1.222   7.571   8.633
  218LIG    HB1 3263   1.307   7.566   8.579
  218LIG    HB2 3264   1.179   7.481   8.633
  218LIG     CG 3265   1.256   7.608   8.774
  218LIG    OD1 3266   1.360   7.694   8.787
  218LIG    OD2 3267   1.193   7.564   8.871
  218LIG      C 3268   1.194   7.813   8.575
  218LIG    OT1 3269   1.213   7.875   8.454
  218LIG    OT2 3270   1.227   7.864   8.697
  219LIG      N 3271   2.539   9.931   4.143
  219LIG     H1 3272   2.523  10.017   4.094
  219LIG     H2 3273   2.452   9.892   4.173
  219LIG     H3 3274   2.597   9.949   4.223
  219LIG     CA 3275   2.610   9.833   4.052
  219LIG     HA 3276   2.554   9.815   3.971
  219LIG     CB 3277   2.741   9.894   4.007
  219LIG    HB1 3278   2.798   9.914   4.087
  219LIG    HB2 3279   2.724   9.978   3.957
  219LIG     CG 3280   2.815   9.799   3.918
  219LIG    OD1 3281   2.893   9.709   3.982
  219LIG    OD2 3282   2.806   9.803   3.795
  219LIG      C 3283   2.637   9.700   4.127
  219LIG    OT1 3284   2.594   9.692   4.257
  219LIG    OT2 3285   2.700   9.601   4.058
  220LIG      N 3286   1.002   8.330   7.397
  220LIG     H1 3287   1.010   8.272   7.478
  220LIG     H2 3288   1.062   8.296   7.325
  220LIG     H3 3289   1.026   8.424   7.421
  220LIG     CA 3290   0.858   8.327   7.348
  220LIG     HA 3291   0.832   8.234   7.325
  220LIG     CB 3292   0.767   8.377   7.458
  220LIG    HB1 3293   0.794   8.471   7.484
  220LIG    HB2 3294   0.776   8.318   7.538
  220LIG     CG 3295   0.625   8.377   7.413
  220LIG    OD1 3296   0.586   8.489   7.348
  220LIG    OD2 3297   0.548   8.283   7.434
  220LIG      C 3298   0.843   8.418   7.223
  220LIG    OT1 3299   0.955   8.482   7.179
  220LIG    OT2 3300   0.719   8.426   7.166
  221LIG      N 3301   4.405   0.905   7.178
  221LIG     H1 3302   4.368   0.824   7.224
  221LIG     H2 3303   4.444   0.967   7.246
  221LIG     H3 3304   4.331   0.951   7.128
  221LIG     CA 3305   4.513   0.863   7.079
  221LIG     HA 3306   4.586   0.816   7.128
  221LIG     CB 3307   4.452   0.768   6.978
  221LIG    HB1 3308   4.376   0.813   6.930
  221LIG    HB2 3309   4.417   0.687   7.025
  221LIG     CG 3310   4.555   0.725   6.878
  221LIG    OD1 3311   4.570   0.808   6.773
  221LIG    OD2 3312   4.621   0.622   6.891
  221LIG      C 3313   4.570   0.988   7.007
  221LIG    OT1 3314   4.518   1.109   7.041
  221LIG    OT2 3315   4.668   0.966   6.915
  222LIG      N 3316   7.970   4.043   5.723
  222LIG     H1 3317   7.935   3.957   5.760
  222LIG     H2 3318   8.053   4.070   5.772
  222LIG     H3 3319   7.900   4.114   5.734
  222LIG     CA 3320   8.001   4.026   5.575
  222LIG     HA 3321   8.071   3.955   5.564
  222LIG     CB 3322   7.876   3.984   5.503
  222LIG    HB1 3323   7.804   4.054   5.516
  222LIG    HB2 3324   7.843   3.898   5.540
  222LIG     CG 3325   7.903   3.968   5.356
  222LIG    OD1 3326   7.892   4.082   5.284
  222LIG    OD2 3327   7.932   3.860   5.306
  222LIG      C 3328   8.054   4.160   5.517
  222LIG    OT1 3329   8.063   4.267   5.603
  222LIG    OT2 3330   8.087   4.161   5.385
  223LIG      N 3331   3.778   8.957   5.285
  223LIG     H1 3332   3.773   8.966   5.185
  223LIG     H2 3333   3.808   8.865   5.309
  223LIG     H3 3334   3.687   8.974   5.324
  223LIG     CA 3335   3.875   9.059   5.341
  223LIG     HA 3336   3.966   9.043   5.302
  223LIG     CB 3337   3.828   9.198   5.303
  223LIG    HB1 3338   3.736   9.213   5.340
  223LIG    HB2 3339   3.826   9.206   5.204
  223LIG     CG 3340   3.922   9.301   5.359
  223LIG    OD1 3341   3.894   9.340   5.485
  223LIG    OD2 3342   4.015   9.348   5.293
  223LIG      C 3343   3.882   9.046   5.496
  223LIG    OT1 3344   3.804   8.950   5.554
  223LIG    OT2 3345   3.966   9.131   5.562
  224LIG      N 3346   4.733   1.183   8.530
  224LIG     H1 3347   4.713   1.236   8.613
  224LIG     H2 3348   4.647   1.152   8.489
  224LIG     H3 3349   4.790   1.105   8.553
  224LIG     CA 3350   4.807   1.271   8.430
  224LIG     HA 3351   4.751   1.351   8.408
  224LIG     CB 3352   4.936   1.319   8.494
  224LIG    HB1 3353   4.992   1.240   8.519
  224LIG    HB2 3354   4.915   1.372   8.576
  224LIG     CG 3355   5.012   1.405   8.398
  224LIG    OD1 3356   5.093   1.337   8.313
  224LIG    OD2 3357   5.003   1.528   8.397
  224LIG      C 3358   4.838   1.191   8.301
  224LIG    OT1 3359   4.796   1.060   8.297
  224LIG    OT2 3360   4.904   1.256   8.202
  225LIG      N 3361   1.072   4.263   9.802
  225LIG     H1 3362   1.167   4.285   9.782
  225LIG     H2 3363   1.019   4.259   9.717
  225LIG     H3 3364   1.033   4.334   9.862
  225LIG     CA 3365   1.064   4.129   9.873
  225LIG     HA 3366   1.103   4.058   9.814
  225LIG     CB 3367   1.145   4.136  10.001
  225LIG    HB1 3368   1.108   4.209  10.060
  225LIG    HB2 3369   1.240   4.157   9.980
  225LIG     CG 3370   1.138   4.005  10.074
  225LIG    OD1 3371   1.032   3.992  10.156
  225LIG    OD2 3372   1.224   3.918  10.060
  225LIG      C 3373   0.916   4.094   9.905
  225LIG    OT1 3374   0.821   4.185   9.867
  225LIG    OT2 3375   0.893   3.976   9.969
  226LIG      N 3376   9.109   5.461   1.394
  226LIG     H1 3377   9.205   5.478   1.372
  226LIG     H2 3378   9.076   5.383   1.340
  226LIG     H3 3379   9.055   5.543   1.371
  226LIG     CA 3380   9.094   5.431   1.542
  226LIG     HA 3381   9.148   5.351   1.565
  226LIG     CB 3382   9.145   5.550   1.621
  226LIG    HB1 3383   9.093   5.632   1.597
  226LIG    HB2 3384   9.241   5.565   1.600
  226LIG     CG 3385   9.131   5.524   1.768
  226LIG    OD1 3386   9.011   5.558   1.820
  226LIG    OD2 3387   9.222   5.478   1.836
  226LIG      C 3388   8.945   5.405   1.576
  226LIG    OT1 3389   8.855   5.413   1.474
  226LIG    OT2 3390   8.915   5.377   1.706
  227LIG      N 3391   1.485   1.731   6.948
  227LIG     H1 3392   1.483   1.739   6.848
  227LIG     H2 3393   1.557   1.792   6.984
  227LIG     H3 3394   1.504   1.637   6.974
  227LIG     CA 3395   1.350   1.773   7.005
  227LIG     HA 3396   1.330   1.867   6.979
  227LIG     CB 3397   1.244   1.682   6.949
  227LIG    HB1 3398   1.264   1.586   6.973
  227LIG    HB2 3399   1.241   1.690   6.850
  227LIG     CG 3400   1.109   1.718   7.004
  227LIG    OD1 3401   1.079   1.660   7.122
  227LIG    OD2 3402   1.032   1.795   6.946
  227LIG      C 3403   1.353   1.761   7.160
  227LIG    OT1 3404   1.470   1.719   7.218
  227LIG    OT2 3405   1.239   1.795   7.227
  228LIG      N 3406   0.726   2.768   9.878
  228LIG     H1 3407   0.640   2.762   9.929
  228LIG     H2 3408   0.710   2.815   9.791
  228LIG     H3 3409   0.761   2.676   9.861
  228LIG     CA 3410   0.828   2.846   9.959
  228LIG     HA 3411   0.793   2.938   9.977
  228LIG     CB 3412   0.850   2.775  10.091
  228LIG    HB1 3413   0.883   2.682  10.074
  228LIG    HB2 3414   0.764   2.770  10.141
  228LIG     CG 3415   0.952   2.848  10.173
  228LIG    OD1 3416   1.080   2.815  10.148
  228LIG    OD2 3417   0.920   2.932  10.258
  228LIG      C 3418   0.962   2.855   9.881
  228LIG    OT1 3419   0.967   2.795   9.758
  228LIG    OT2 3420   1.064   2.923   9.941
  229LIG      N 3421  10.015   6.343   0.180
  229LIG     H1 3422   9.949   6.270   0.199
  229LIG     H2 3423  10.047   6.336   0.086
  229LIG     H3 3424  10.093   6.335   0.243
  229LIG     CA 3425   9.949   6.478   0.201
  229LIG     HA 3426   9.871   6.487   0.140
  229LIG     CB 3427   9.901   6.488   0.344
  229LIG    HB1 3428   9.978   6.476   0.407
  229LIG    HB2 3429   9.834   6.415   0.362
  229LIG     CG 3430   9.836   6.620   0.369
  229LIG    OD1 3431   9.921   6.719   0.404
  229LIG    OD2 3432   9.715   6.638   0.358
  229LIG      C 3433  10.051   6.592   0.172
  229LIG    OT1 3434  10.177   6.555   0.135
  229LIG    OT2 3435  10.006   6.720   0.187
  230LIG      N 3436   5.392   1.606   6.228
  230LIG     H1 3437   5.422   1.544   6.301
  230LIG     H2 3438   5.455   1.599   6.150
  230LIG     H3 3439   5.392   1.700   6.262
  230LIG     CA 3440   5.252   1.568   6.183
  230LIG     HA 3441   5.252   1.474   6.149
  230LIG     CB 3442   5.159   1.578   6.301
  230LIG    HB1 3443   5.160   1.671   6.337
  230LIG    HB2 3444   5.188   1.515   6.372
  230LIG     CG 3445   5.019   1.543   6.260
  230LIG    OD1 3446   4.947   1.646   6.210
  230LIG    OD2 3447   4.973   1.429   6.272
  230LIG      C 3448   5.205   1.664   6.070
  230LIG    OT1 3449   5.292   1.762   6.031
  230LIG    OT2 3450   5.081   1.643   6.019
  231LIG      N 3451   2.170   8.164   1.363
  231LIG     H1 3452   2.226   8.096   1.314
  231LIG     H2 3453   2.158   8.135   1.458
  231LIG     H3 3454   2.081   8.171   1.318
  231LIG     CA 3455   2.240   8.299   1.359
  231LIG     HA 3456   2.329   8.292   1.403
  231LIG     CB 3457   2.259   8.341   1.215
  231LIG    HB1 3458   2.170   8.345   1.169
  231LIG    HB2 3459   2.315   8.273   1.168
  231LIG     CG 3460   2.325   8.474   1.207
  231LIG    OD1 3461   2.241   8.580   1.213
  231LIG    OD2 3462   2.447   8.487   1.196
  231LIG      C 3463   2.153   8.405   1.433
  231LIG    OT1 3464   2.035   8.362   1.487
  231LIG    OT2 3465   2.202   8.532   1.439
  232LIG      N 3466   0.396   3.552   8.032
  232LIG     H1 3467   0.482   3.501   8.033
  232LIG     H2 3468   0.348   3.537   8.119
  232LIG     H3 3469   0.340   3.520   7.956
  232LIG     CA 3470   0.424   3.700   8.014
  232LIG     HA 3471   0.481   3.732   8.089
  232LIG     CB 3472   0.498   3.720   7.884
  232LIG    HB1 3473   0.443   3.686   7.808
  232LIG    HB2 3474   0.585   3.670   7.886
  232LIG     CG 3475   0.527   3.866   7.862
  232LIG    OD1 3476   0.427   3.934   7.802
  232LIG    OD2 3477   0.633   3.918   7.895
  232LIG      C 3478   0.291   3.780   8.012
  232LIG    OT1 3479   0.175   3.708   8.026
  232LIG    OT2 3480   0.299   3.915   7.996
  233LIG      N 3481   8.242  10.021   3.830
  233LIG     H1 3482   8.296   9.952   3.877
  233LIG     H2 3483   8.203  10.085   3.896
  233LIG     H3 3484   8.167   9.976   3.780
  233LIG     CA 3485   8.330  10.096   3.731
  233LIG     HA 3486   8.404  10.140   3.781
  233LIG     CB 3487   8.388   9.998   3.632
  233LIG    HB1 3488   8.313   9.951   3.584
  233LIG    HB2 3489   8.443   9.930   3.680
  233LIG     CG 3490   8.474  10.069   3.532
  233LIG    OD1 3491   8.408  10.118   3.426
  233LIG    OD2 3492   8.596  10.080   3.547
  233LIG      C 3493   8.246  10.203   3.656
  233LIG    OT1 3494   8.113  10.213   3.689
  233LIG    OT2 3495   8.311  10.280   3.564
  234LIG      N 3496   4.787   7.668   0.058
  234LIG     H1 3497   4.859   7.616   0.012
  234LIG     H2 3498   4.709   7.608   0.077
  234LIG     H3 3499   4.758   7.743  -0.001
  234LIG     CA 3500   4.840   7.725   0.188
  234LIG     HA 3501   4.870   7.651   0.248
  234LIG     CB 3502   4.958   7.815   0.158
  234LIG    HB1 3503   4.929   7.889   0.097
  234LIG    HB2 3504   5.030   7.762   0.114
  234LIG     CG 3505   5.012   7.874   0.285
  234LIG    OD1 3506   4.951   7.988   0.324
  234LIG    OD2 3507   5.105   7.824   0.347
  234LIG      C 3508   4.728   7.807   0.260
  234LIG    OT1 3509   4.606   7.814   0.197
  234LIG    OT2 3510   4.760   7.864   0.379
  235LIG      N 3511   5.439   9.798   7.233
  235LIG     H1 3512   5.367   9.745   7.279
  235LIG     H2 3513   5.418   9.806   7.136
  235LIG     H3 3514   5.527   9.753   7.245
  235LIG     CA 3515   5.445   9.937   7.295
  235LIG     HA 3516   5.357   9.983   7.284
  235LIG     CB 3517   5.475   9.924   7.442
  235LIG    HB1 3518   5.563   9.877   7.454
  235LIG    HB2 3519   5.404   9.872   7.487
  235LIG     CG 3520   5.484  10.060   7.506
  235LIG    OD1 3521   5.606  10.118   7.499
  235LIG    OD2 3522   5.388  10.113   7.561
  235LIG      C 3523   5.556  10.021   7.225
  235LIG    OT1 3524   5.626   9.960   7.125
  235LIG    OT2 3525   5.574  10.149   7.269
  236LIG      N 3526   0.596   0.292   3.411
  236LIG     H1 3527   0.618   0.206   3.458
  236LIG     H2 3528   0.649   0.297   3.326
  236LIG     H3 3529   0.620   0.369   3.471
  236LIG     CA 3530   0.448   0.296   3.380
  236LIG     HA 3531   0.424   0.219   3.321
  236LIG     CB 3532   0.370   0.286   3.509
  236LIG    HB1 3533   0.395   0.362   3.570
  236LIG    HB2 3534   0.391   0.200   3.555
  236LIG     CG 3535   0.223   0.292   3.482
  236LIG    OD1 3536   0.171   0.417   3.475
  236LIG    OD2 3537   0.154   0.191   3.468
  236LIG      C 3538   0.413   0.429   3.307
  236LIG    OT1 3539   0.516   0.517   3.284
  236LIG    OT2 3540   0.283   0.448   3.272
  237LIG      N 3541   4.333   1.585   2.827
  237LIG     H1 3542   4.418   1.532   2.822
  237LIG     H2 3543   4.274   1.547   2.898
  237LIG     H3 3544   4.287   1.581   2.738
  237LIG     CA 3545   4.365   1.730   2.860
  237LIG     HA 3546   4.412   1.734   2.948
  237LIG     CB 3547   4.456   1.786   2.752
  237LIG    HB1 3548   4.410   1.779   2.663
  237LIG    HB2 3549   4.541   1.733   2.749
  237LIG     CG 3550   4.488   1.929   2.781
  237LIG    OD1 3551   4.398   2.018   2.733
  237LIG    OD2 3552   4.590   1.963   2.842
  237LIG      C 3553   4.234   1.812   2.866
  237LIG    OT1 3554   4.117   1.746   2.843
  237LIG    OT2 3555   4.246   1.945   2.895
  238LIG      N 3556   2.274   1.530   1.574
  238LIG     H1 3557   2.186   1.576   1.588
  238LIG     H2 3558   2.340   1.595   1.536
  238LIG     H3 3559   2.262   1.453   1.512
  238LIG     CA 3560   2.326   1.479   1.708
  238LIG     HA 3561   2.337   1.555   1.771
  238LIG     CB 3562   2.225   1.382   1.765
  238LIG    HB1 3563   2.211   1.306   1.701
  238LIG    HB2 3564   2.138   1.428   1.779
  238LIG     CG 3565   2.273   1.328   1.896
  238LIG    OD1 3566   2.353   1.219   1.887
  238LIG    OD2 3567   2.241   1.378   2.004
  238LIG      C 3568   2.462   1.407   1.688
  238LIG    OT1 3569   2.512   1.402   1.560
  238LIG    OT2 3570   2.522   1.355   1.798
  239LIG      N 3571   5.465   9.197   4.912
  239LIG     H1 3572   5.534   9.130   4.937
  239LIG     H2 3573   5.483   9.231   4.819
  239LIG     H3 3574   5.468   9.274   4.977
  239LIG     CA 3575   5.327   9.134   4.916
  239LIG     HA 3576   5.324   9.057   4.852
  239LIG     CB 3577   5.301   9.082   5.055
  239LIG    HB1 3578   5.307   9.158   5.121
  239LIG    HB2 3579   5.370   9.014   5.079
  239LIG     CG 3580   5.165   9.020   5.064
  239LIG    OD1 3581   5.065   9.106   5.091
  239LIG    OD2 3582   5.147   8.899   5.048
  239LIG      C 3583   5.219   9.238   4.877
  239LIG    OT1 3584   5.262   9.365   4.847
  239LIG    OT2 3585   5.089   9.196   4.876
  240LIG      N 3586   1.347   3.292   6.819
  240LIG     H1 3587   1.412   3.251   6.883
  240LIG     H2 3588   1.304   3.221   6.764
  240LIG     H3 3589   1.395   3.356   6.759
  240LIG     CA 3590   1.240   3.368   6.897
  240LIG     HA 3591   1.192   3.305   6.957
  240LIG     CB 3592   1.306   3.475   6.980
  240LIG    HB1 3593   1.357   3.537   6.920
  240LIG    HB2 3594   1.370   3.433   7.044
  240LIG     CG 3595   1.204   3.553   7.057
  240LIG    OD1 3596   1.149   3.656   6.990
  240LIG    OD2 3597   1.173   3.524   7.173
  240LIG      C 3598   1.139   3.433   6.798
  240LIG    OT1 3599   1.160   3.413   6.665
  240LIG    OT2 3600   1.037   3.504   6.853
  241LIG      N 3601   0.743   9.764   5.079
  241LIG     H1 3602   0.836   9.781   5.047
  241LIG     H2 3603   0.740   9.768   5.179
  241LIG     H3 3604   0.712   9.674   5.047
  241LIG     CA 3605   0.650   9.871   5.023
  241LIG     HA 3606   0.680   9.961   5.053
  241LIG     CB 3607   0.656   9.866   4.871
  241LIG    HB1 3608   0.628   9.774   4.840
  241LIG    HB2 3609   0.749   9.883   4.841
  241LIG     CG 3610   0.564   9.968   4.812
  241LIG    OD1 3611   0.436   9.927   4.796
  241LIG    OD2 3612   0.603  10.080   4.779
  241LIG      C 3613   0.504   9.845   5.071
  241LIG    OT1 3614   0.484   9.737   5.152
  241LIG    OT2 3615   0.409   9.932   5.028
  242LIG      N 3616   8.294   9.187   6.299
  242LIG     H1 3617   8.333   9.217   6.212
  242LIG     H2 3618   8.256   9.265   6.348
  242LIG     H3 3619   8.366   9.145   6.355
  242LIG     CA 3620   8.185   9.084   6.274
  242LIG     HA 3621   8.113   9.126   6.218
  242LIG     CB 3622   8.244   8.967   6.200
  242LIG    HB1 3623   8.318   8.926   6.254
  242LIG    HB2 3624   8.281   8.997   6.112
  242LIG     CG 3625   8.139   8.863   6.174
  242LIG    OD1 3626   8.121   8.774   6.275
  242LIG    OD2 3627   8.074   8.858   6.069
  242LIG      C 3628   8.125   9.037   6.409
  242LIG    OT1 3629   8.177   9.091   6.523
  242LIG    OT2 3630   8.025   8.944   6.403
  243LIG      N 3631   5.575   8.504   7.400
  243LIG     H1 3632   5.484   8.546   7.393
  243LIG     H2 3633   5.627   8.550   7.472
  243LIG     H3 3634   5.622   8.514   7.312
  243LIG     CA 3635   5.561   8.356   7.433
  243LIG     HA 3636   5.513   8.346   7.520
  243LIG     CB 3637   5.480   8.289   7.324
  243LIG    HB1 3638   5.526   8.301   7.236
  243LIG    HB2 3639   5.389   8.331   7.319
  243LIG     CG 3640   5.465   8.143   7.352
  243LIG    OD1 3641   5.567   8.066   7.307
  243LIG    OD2 3642   5.367   8.097   7.411
  243LIG      C 3643   5.701   8.291   7.443
  243LIG    OT1 3644   5.809   8.371   7.422
  243LIG    OT2 3645   5.705   8.158   7.472
  244LIG      N 3646   0.224   0.487   5.475
  244LIG     H1 3647   0.136   0.482   5.428
  244LIG     H2 3648   0.250   0.583   5.488
  244LIG     H3 3649   0.294   0.440   5.420
  244LIG     CA 3650   0.213   0.419   5.611
  244LIG     HA 3651   0.144   0.465   5.665
  244LIG     CB 3652   0.173   0.275   5.590
  244LIG    HB1 3653   0.242   0.228   5.533
  244LIG    HB2 3654   0.085   0.271   5.544
  244LIG     CG 3655   0.163   0.204   5.721
  244LIG    OD1 3656   0.279   0.152   5.767
  244LIG    OD2 3657   0.056   0.193   5.782
  244LIG      C 3658   0.350   0.426   5.684
  244LIG    OT1 3659   0.453   0.488   5.620
  244LIG    OT2 3660   0.356   0.369   5.808
  245LIG      N 3661   1.162   5.782   7.246
  245LIG     H1 3662   1.133   5.875   7.272
  245LIG     H2 3663   1.170   5.777   7.146
  245LIG     H3 3664   1.094   5.716   7.278
  245LIG     CA 3665   1.297   5.751   7.309
  245LIG     HA 3666   1.364   5.817   7.278
  245LIG     CB 3667   1.283   5.761   7.459
  245LIG    HB1 3668   1.213   5.696   7.491
  245LIG    HB2 3669   1.256   5.853   7.485
  245LIG     CG 3670   1.414   5.729   7.526
  245LIG    OD1 3671   1.435   5.597   7.548
  245LIG    OD2 3672   1.495   5.816   7.557
  245LIG      C 3673   1.342   5.608   7.269
  245LIG    OT1 3674   1.258   5.537   7.187
  245LIG    OT2 3675   1.461   5.565   7.318
  246LIG      N 3676   9.956   2.260   0.301
  246LIG     H1 3677   9.959   2.333   0.369
  246LIG     H2 3678   9.970   2.298   0.210
  246LIG     H3 3679   9.867   2.214   0.305
  246LIG     CA 3680  10.065   2.159   0.331
  246LIG     HA 3681  10.154   2.204   0.327
  246LIG     CB 3682  10.044   2.103   0.470
  246LIG    HB1 3683   9.953   2.059   0.475
  246LIG    HB2 3684  10.048   2.176   0.537
  246LIG     CG 3685  10.149   2.001   0.502
  246LIG    OD1 3686  10.121   1.876   0.461
  246LIG    OD2 3687  10.252   2.030   0.562
  246LIG      C 3688  10.061   2.044   0.226
  246LIG    OT1 3689   9.965   2.051   0.129
  246LIG    OT2 3690  10.153   1.944   0.240
  247LIG      N 3691   8.202   9.477   0.657
  247LIG     H1 3692   8.202   9.461   0.559
  247LIG     H2 3693   8.249   9.402   0.704
  247LIG     H3 3694   8.107   9.484   0.690
  247LIG     CA 3695   8.274   9.608   0.687
  247LIG     HA 3696   8.368   9.602   0.653
  247LIG     CB 3697   8.203   9.720   0.615
  247LIG    HB1 3698   8.107   9.725   0.646
  247LIG    HB2 3699   8.204   9.704   0.517
  247LIG     CG 3700   8.270   9.851   0.643
  247LIG    OD1 3701   8.228   9.914   0.756
  247LIG    OD2 3702   8.356   9.899   0.569
  247LIG      C 3703   8.274   9.635   0.840
  247LIG    OT1 3704   8.213   9.542   0.920
  247LIG    OT2 3705   8.335   9.749   0.882
  248LIG      N 3706   8.252   8.299   2.905
  248LIG     H1 3707   8.277   8.332   2.814
  248LIG     H2 3708   8.171   8.240   2.898
  248LIG     H3 3709   8.232   8.377   2.965
  248LIG     CA 3710   8.368   8.220   2.964
  248LIG     HA 3711   8.389   8.143   2.905
  248LIG     CB 3712   8.489   8.310   2.973
  248LIG    HB1 3713   8.468   8.390   3.030
  248LIG    HB2 3714   8.514   8.342   2.882
  248LIG     CG 3715   8.605   8.236   3.032
  248LIG    OD1 3716   8.610   8.238   3.167
  248LIG    OD2 3717   8.690   8.180   2.963
  248LIG      C 3718   8.330   8.168   3.106
  248LIG    OT1 3719   8.206   8.200   3.153
  248LIG    OT2 3720   8.424   8.096   3.172
  249LIG      N 3721   6.807   1.700   0.581
  249LIG     H1 3722   6.752   1.709   0.665
  249LIG     H2 3723   6.755   1.649   0.513
  249LIG     H3 3724   6.892   1.652   0.602
  249LIG     CA 3725   6.840   1.839   0.528
  249LIG     HA 3726   6.755   1.888   0.508
  249LIG     CB 3727   6.917   1.915   0.633
  249LIG    HB1 3728   7.001   1.865   0.656
  249LIG    HB2 3729   6.861   1.924   0.715
  249LIG     CG 3730   6.952   2.052   0.583
  249LIG    OD1 3731   7.067   2.058   0.512
  249LIG    OD2 3732   6.883   2.151   0.606
  249LIG      C 3733   6.925   1.827   0.398
  249LIG    OT1 3734   6.955   1.700   0.355
  249LIG    OT2 3735   6.962   1.943   0.338
  250LIG      N 3736   0.934   7.026   9.375
  250LIG     H1 3737   0.876   6.967   9.431
  250LIG     H2 3738   0.921   7.002   9.278
  250LIG     H3 3739   1.030   7.013   9.400
  250LIG     CA 3740   0.896   7.171   9.397
  250LIG     HA 3741   0.800   7.184   9.373
  250LIG     CB 3742   0.914   7.205   9.543
  250LIG    HB1 3743   1.010   7.189   9.570
  250LIG    HB2 3744   0.855   7.146   9.599
  250LIG     CG 3745   0.879   7.348   9.569
  250LIG    OD1 3746   0.979   7.436   9.549
  250LIG    OD2 3747   0.767   7.382   9.606
  250LIG      C 3748   0.985   7.263   9.310
  250LIG    OT1 3749   1.079   7.203   9.231
  250LIG    OT2 3750   0.963   7.397   9.319
  251LIG      N 3751   9.703   0.998   3.188
  251LIG     H1 3752   9.800   0.981   3.166
  251LIG     H2 3753   9.692   1.001   3.287
  251LIG     H3 3754   9.647   0.925   3.149
  251LIG     CA 3755   9.660   1.131   3.127
  251LIG     HA 3756   9.717   1.204   3.165
  251LIG     CB 3757   9.680   1.125   2.978
  251LIG    HB1 3758   9.626   1.050   2.939
  251LIG    HB2 3759   9.776   1.109   2.957
  251LIG     CG 3760   9.637   1.254   2.914
  251LIG    OD1 3761   9.506   1.262   2.884
  251LIG    OD2 3762   9.716   1.346   2.891
  251LIG      C 3763   9.511   1.158   3.160
  251LIG    OT1 3764   9.445   1.064   3.234
  251LIG    OT2 3765   9.457   1.274   3.113
  252LIG      N 3766   3.135   7.827   0.718
  252LIG     H1 3767   3.075   7.904   0.741
  252LIG     H2 3768   3.140   7.817   0.619
  252LIG     H3 3769   3.098   7.743   0.759
  252LIG     CA 3770   3.274   7.852   0.774
  252LIG     HA 3771   3.311   7.936   0.735
  252LIG     CB 3772   3.264   7.868   0.924
  252LIG    HB1 3773   3.224   7.786   0.965
  252LIG    HB2 3774   3.205   7.946   0.946
  252LIG     CG 3775   3.400   7.892   0.983
  252LIG    OD1 3776   3.469   7.779   1.013
  252LIG    OD2 3777   3.444   8.005   1.004
  252LIG      C 3778   3.367   7.733   0.740
  252LIG    OT1 3779   3.312   7.629   0.669
  252LIG    OT2 3780   3.496   7.740   0.784
  253LIG      N 3781   2.608   9.403   1.523
  253LIG     H1 3782   2.600   9.493   1.480
  253LIG     H2 3783   2.681   9.351   1.478
  253LIG     H3 3784   2.521   9.354   1.513
  253LIG     CA 3785   2.640   9.419   1.670
  253LIG     HA 3786   2.726   9.468   1.680
  253LIG     CB 3787   2.530   9.498   1.736
  253LIG    HB1 3788   2.442   9.451   1.724
  253LIG    HB2 3789   2.523   9.588   1.694
  253LIG     CG 3790   2.557   9.514   1.883
  253LIG    OD1 3791   2.513   9.413   1.960
  253LIG    OD2 3792   2.614   9.613   1.928
  253LIG      C 3793   2.652   9.279   1.737
  253LIG    OT1 3794   2.633   9.170   1.657
  253LIG    OT2 3795   2.680   9.276   1.870
  254LIG      N 3796   2.930   8.671   7.651
  254LIG     H1 3797   2.831   8.685   7.657
  254LIG     H2 3798   2.950   8.605   7.580
  254LIG     H3 3799   2.964   8.638   7.739
  254LIG     CA 3800   2.997   8.803   7.618
  254LIG     HA 3801   2.963   8.837   7.531
  254LIG     CB 3802   2.965   8.904   7.727
  254LIG    HB1 3803   2.997   8.869   7.815
  254LIG    HB2 3804   2.866   8.918   7.731
  254LIG     CG 3805   3.031   9.035   7.698
  254LIG    OD1 3806   3.158   9.045   7.744
  254LIG    OD2 3807   2.974   9.126   7.639
  254LIG      C 3808   3.151   8.783   7.609
  254LIG    OT1 3809   3.199   8.657   7.631
  254LIG    OT2 3810   3.226   8.893   7.580
  255LIG      N 3811   9.827   9.113   3.925
  255LIG     H1 3812   9.755   9.136   3.991
  255LIG     H2 3813   9.813   9.020   3.891
  255LIG     H3 3814   9.916   9.120   3.970
  255LIG     CA 3815   9.824   9.211   3.809
  255LIG     HA 3816   9.735   9.206   3.764
  255LIG     CB 3817   9.844   9.351   3.862
  255LIG    HB1 3818   9.932   9.357   3.910
  255LIG    HB2 3819   9.771   9.374   3.926
  255LIG     CG 3820   9.842   9.450   3.750
  255LIG    OD1 3821   9.962   9.469   3.689
  255LIG    OD2 3822   9.740   9.510   3.716
  255LIG      C 3823   9.936   9.176   3.707
  255LIG    OT1 3824  10.016   9.069   3.736
  255LIG    OT2 3825   9.945   9.255   3.596
  256LIG      N 3826   0.787   6.399   1.187
  256LIG     H1 3827   0.790   6.387   1.286
  256LIG     H2 3828   0.740   6.484   1.164
  256LIG     H3 3829   0.738   6.322   1.146
  256LIG     CA 3830   0.929   6.403   1.132
  256LIG     HA 3831   0.978   6.479   1.173
  256LIG     CB 3832   0.999   6.274   1.167
  256LIG    HB1 3833   0.948   6.196   1.129
  256LIG    HB2 3834   1.002   6.264   1.267
  256LIG     CG 3835   1.138   6.273   1.114
  256LIG    OD1 3836   1.150   6.230   0.986
  256LIG    OD2 3837   1.235   6.309   1.181
  256LIG      C 3838   0.925   6.420   0.977
  256LIG    OT1 3839   0.802   6.428   0.918
  256LIG    OT2 3840   1.045   6.425   0.913
  257LIG      N 3841   0.397   0.188   9.849
  257LIG     H1 3842   0.480   0.180   9.903
  257LIG     H2 3843   0.350   0.099   9.845
  257LIG     H3 3844   0.420   0.218   9.756
  257LIG     CA 3845   0.304   0.290   9.913
  257LIG     HA 3846   0.281   0.261  10.005
  257LIG     CB 3847   0.376   0.423   9.919
  257LIG    HB1 3848   0.401   0.452   9.826
  257LIG    HB2 3849   0.458   0.415   9.974
  257LIG     CG 3850   0.287   0.528   9.980
  257LIG    OD1 3851   0.205   0.590   9.893
  257LIG    OD2 3852   0.290   0.555  10.100
  257LIG      C 3853   0.174   0.304   9.829
  257LIG    OT1 3854   0.164   0.226   9.717
  257LIG    OT2 3855   0.081   0.393   9.873
  258LIG      N 3856   2.093   8.172   8.510
  258LIG     H1 3857   2.090   8.241   8.583
  258LIG     H2 3858   2.174   8.115   8.522
  258LIG     H3 3859   2.096   8.218   8.421
  258LIG     CA 3860   1.968   8.086   8.517
  258LIG     HA 3861   1.964   8.041   8.606
  258LIG     CB 3862   1.846   8.175   8.501
  258LIG    HB1 3863   1.851   8.223   8.413
  258LIG    HB2 3864   1.844   8.243   8.574
  258LIG     CG 3865   1.721   8.093   8.506
  258LIG    OD1 3866   1.683   8.041   8.388
  258LIG    OD2 3867   1.657   8.076   8.610
  258LIG      C 3868   1.970   7.979   8.405
  258LIG    OT1 3869   2.079   7.979   8.321
  258LIG    OT2 3870   1.865   7.894   8.398
  259LIG      N 3871   1.156   4.764   2.637
  259LIG     H1 3872   1.210   4.775   2.721
  259LIG     H2 3873   1.059   4.770   2.658
  259LIG     H3 3874   1.176   4.675   2.596
  259LIG     CA 3875   1.193   4.873   2.538
  259LIG     HA 3876   1.174   4.962   2.579
  259LIG     CB 3877   1.341   4.864   2.508
  259LIG    HB1 3878   1.362   4.773   2.469
  259LIG    HB2 3879   1.394   4.876   2.592
  259LIG     CG 3880   1.381   4.970   2.410
  259LIG    OD1 3881   1.365   4.936   2.280
  259LIG    OD2 3882   1.426   5.079   2.445
  259LIG      C 3883   1.111   4.857   2.407
  259LIG    OT1 3884   1.023   4.753   2.402
  259LIG    OT2 3885   1.133   4.948   2.309
  260LIG      N 3886   8.742   4.029   1.765
  260LIG     H1 3887   8.734   4.038   1.864
  260LIG     H2 3888   8.652   4.015   1.724
  260LIG     H3 3889   8.802   3.952   1.743
  260LIG     CA 3890   8.804   4.156   1.708
  260LIG     HA 3891   8.746   4.234   1.730
  260LIG     CB 3892   8.940   4.177   1.771
  260LIG    HB1 3893   8.998   4.098   1.752
  260LIG    HB2 3894   8.930   4.186   1.870
  260LIG     CG 3895   9.004   4.301   1.716
  260LIG    OD1 3896   9.074   4.282   1.602
  260LIG    OD2 3897   8.995   4.410   1.772
  260LIG      C 3898   8.818   4.144   1.554
  260LIG    OT1 3899   8.776   4.027   1.496
  260LIG    OT2 3900   8.872   4.250   1.488
  261LIG      N 3901   9.736   9.427   5.879
  261LIG     H1 3902   9.782   9.476   5.953
  261LIG     H2 3903   9.801   9.411   5.804
  261LIG     H3 3904   9.659   9.481   5.845
  261LIG     CA 3905   9.684   9.293   5.930
  261LIG     HA 3906   9.761   9.239   5.964
  261LIG     CB 3907   9.588   9.319   6.043
  261LIG    HB1 3908   9.512   9.376   6.010
  261LIG    HB2 3909   9.634   9.367   6.117
  261LIG     CG 3910   9.533   9.189   6.095
  261LIG    OD1 3911   9.425   9.143   6.029
  261LIG    OD2 3912   9.583   9.131   6.191
  261LIG      C 3913   9.613   9.217   5.815
  261LIG    OT1 3914   9.608   9.278   5.693
  261LIG    OT2 3915   9.561   9.095   5.845
  262LIG      N 3916   7.678   1.513   6.072
  262LIG     H1 3917   7.645   1.561   6.153
  262LIG     H2 3918   7.622   1.432   6.054
  262LIG     H3 3919   7.773   1.486   6.086
  262LIG     CA 3920   7.670   1.607   5.952
  262LIG     HA 3921   7.576   1.635   5.938
  262LIG     CB 3922   7.755   1.729   5.980
  262LIG    HB1 3923   7.850   1.701   5.997
  262LIG    HB2 3924   7.720   1.776   6.060
  262LIG     CG 3925   7.751   1.823   5.863
  262LIG    OD1 3926   7.842   1.797   5.767
  262LIG    OD2 3927   7.671   1.916   5.856
  262LIG      C 3928   7.723   1.534   5.825
  262LIG    OT1 3929   7.765   1.405   5.840
  262LIG    OT2 3930   7.722   1.605   5.708
  263LIG      N 3931   5.597   5.665   9.113
  263LIG     H1 3932   5.647   5.589   9.071
  263LIG     H2 3933   5.502   5.664   9.081
  263LIG     H3 3934   5.641   5.751   9.089
  263LIG     CA 3935   5.600   5.649   9.264
  263LIG     HA 3936   5.558   5.562   9.289
  263LIG     CB 3937   5.744   5.648   9.311
  263LIG    HB1 3938   5.789   5.734   9.284
  263LIG    HB2 3939   5.793   5.572   9.269
  263LIG     CG 3940   5.751   5.634   9.460
  263LIG    OD1 3941   5.742   5.750   9.528
  263LIG    OD2 3942   5.764   5.525   9.515
  263LIG      C 3943   5.524   5.766   9.332
  263LIG    OT1 3944   5.468   5.860   9.249
  263LIG    OT2 3945   5.517   5.766   9.468
  264LIG      N 3946   0.093   7.345   8.998
  264LIG     H1 3947   0.176   7.399   9.014
  264LIG     H2 3948   0.051   7.375   8.912
  264LIG     H3 3949   0.029   7.358   9.073
  264LIG     CA 3950   0.129   7.198   8.988
  264LIG     HA 3951   0.194   7.184   8.913
  264LIG     CB 3952   0.194   7.154   9.117
  264LIG    HB1 3953   0.131   7.170   9.193
  264LIG    HB2 3954   0.277   7.208   9.133
  264LIG     CG 3955   0.230   7.009   9.112
  264LIG    OD1 3956   0.131   6.925   9.148
  264LIG    OD2 3957   0.341   6.970   9.078
  264LIG      C 3958   0.001   7.113   8.962
  264LIG    OT1 3959  -0.117   7.181   8.953
  264LIG    OT2 3960   0.017   6.979   8.951
  265LIG      N 3961   7.242   7.697   0.468
  265LIG     H1 3962   7.224   7.785   0.425
  265LIG     H2 3963   7.288   7.636   0.404
  265LIG     H3 3964   7.155   7.655   0.497
  265LIG     CA 3965   7.330   7.718   0.590
  265LIG     HA 3966   7.416   7.760   0.562
  265LIG     CB 3967   7.259   7.810   0.687
  265LIG    HB1 3968   7.171   7.770   0.713
  265LIG    HB2 3969   7.242   7.898   0.643
  265LIG     CG 3970   7.343   7.832   0.809
  265LIG    OD1 3971   7.327   7.739   0.906
  265LIG    OD2 3972   7.419   7.928   0.821
  265LIG      C 3973   7.359   7.581   0.659
  265LIG    OT1 3974   7.303   7.470   0.603
  265LIG    OT2 3975   7.437   7.583   0.771
  266LIG      N 3976   9.601   2.558   9.269
  266LIG     H1 3977   9.515   2.609   9.267
  266LIG     H2 3978   9.609   2.510   9.357
  266LIG     H3 3979   9.677   2.622   9.259
  266LIG     CA 3980   9.604   2.457   9.156
  266LIG     HA 3981   9.528   2.394   9.165
  266LIG     CB 3982   9.591   2.531   9.024
  266LIG    HB1 3983   9.666   2.597   9.015
  266LIG    HB2 3984   9.504   2.580   9.022
  266LIG     CG 3985   9.595   2.435   8.910
  266LIG    OD1 3986   9.719   2.404   8.866
  266LIG    OD2 3987   9.493   2.388   8.859
  266LIG      C 3988   9.738   2.378   9.159
  266LIG    OT1 3989   9.827   2.410   9.258
  266LIG    OT2 3990   9.756   2.283   9.062
  267LIG      N 3991   7.373   9.335   2.477
  267LIG     H1 3992   7.326   9.249   2.455
  267LIG     H2 3993   7.435   9.320   2.554
  267LIG     H3 3994   7.305   9.405   2.500
  267LIG     CA 3995   7.453   9.382   2.356
  267LIG     HA 3996   7.520   9.313   2.331
  267LIG     CB 3997   7.358   9.402   2.240
  267LIG    HB1 3998   7.288   9.470   2.265
  267LIG    HB2 3999   7.312   9.316   2.218
  267LIG     CG 4000   7.432   9.450   2.119
  267LIG    OD1 4001   7.449   9.584   2.112
  267LIG    OD2 4002   7.474   9.373   2.032
  267LIG      C 4003   7.525   9.515   2.389
  267LIG    OT1 4004   7.507   9.567   2.514
  267LIG    OT2 4005   7.601   9.571   2.290
  268LIG      N 4006   0.932   4.504   2.798
  268LIG     H1 4007   1.014   4.474   2.749
  268LIG     H2 4008   0.854   4.450   2.768
  268LIG     H3 4009   0.916   4.601   2.778
  268LIG     CA 4010   0.952   4.487   2.948
  268LIG     HA 4011   0.970   4.391   2.968
  268LIG     CB 4012   1.072   4.569   2.991
  268LIG    HB1 4013   1.057   4.666   2.968
  268LIG    HB2 4014   1.154   4.537   2.943
  268LIG     CG 4015   1.094   4.556   3.138
  268LIG    OD1 4016   1.024   4.642   3.214
  268LIG    OD2 4017   1.172   4.473   3.186
  268LIG      C 4018   0.826   4.535   3.024
  268LIG    OT1 4019   0.722   4.582   2.949
  268LIG    OT2 4020   0.828   4.526   3.160
  269LIG      N 4021   5.301   0.127   5.194
  269LIG     H1 4022   5.247   0.141   5.277
  269LIG     H2 4023   5.374   0.061   5.213
  269LIG     H3 4024   5.341   0.214   5.165
  269LIG     CA 4025   5.212   0.074   5.083
  269LIG     HA 4026   5.172  -0.013   5.111
  269LIG     CB 4027   5.102   0.174   5.056
  269LIG    HB1 4028   5.142   0.262   5.030
  269LIG    HB2 4029   5.048   0.187   5.139
  269LIG     CG 4030   5.013   0.126   4.946
  269LIG    OD1 4031   5.055   0.158   4.821
  269LIG    OD2 4032   4.910   0.063   4.968
  269LIG      C 4033   5.296   0.052   4.954
  269LIG    OT1 4034   5.429   0.083   4.960
  269LIG    OT2 4035   5.230   0.005   4.844
  270LIG      N 4036   2.048   0.069   0.343
  270LIG     H1 4037   2.008   0.000   0.282
  270LIG     H2 4038   2.062   0.029   0.434
  270LIG     H3 4039   1.987   0.148   0.350
  270LIG     CA 4040   2.181   0.115   0.286
  270LIG     HA 4041   2.243   0.036   0.278
  270LIG     CB 4042   2.158   0.173   0.149
  270LIG    HB1 4043   2.095   0.251   0.155
  270LIG    HB2 4044   2.119   0.104   0.089
  270LIG     CG 4045   2.288   0.221   0.090
  270LIG    OD1 4046   2.322   0.347   0.124
  270LIG    OD2 4047   2.356   0.151   0.016
  270LIG      C 4048   2.245   0.222   0.379
  270LIG    OT1 4049   2.175   0.256   0.492
  270LIG    OT2 4050   2.365   0.273   0.342
  271LIG      N 4051   3.337   3.196   0.490
  271LIG     H1 4052   3.426   3.177   0.446
  271LIG     H2 4053   3.342   3.171   0.587
  271LIG     H3 4054   3.266   3.142   0.445
  271LIG     CA 4055   3.304   3.343   0.477
  271LIG     HA 4056   3.375   3.397   0.521
  271LIG     CB 4057   3.299   3.379   0.330
  271LIG    HB1 4058   3.230   3.324   0.284
  271LIG    HB2 4059   3.388   3.362   0.288
  271LIG     CG 4060   3.265   3.524   0.313
  271LIG    OD1 4061   3.133   3.552   0.311
  271LIG    OD2 4062   3.352   3.611   0.300
  271LIG      C 4063   3.167   3.373   0.543
  271LIG    OT1 4064   3.101   3.268   0.600
  271LIG    OT2 4065   3.123   3.502   0.540
  272LIG      N 4066   9.098   7.113   2.101
  272LIG     H1 4067   9.149   7.159   2.174
  272LIG     H2 4068   9.124   7.152   2.012
  272LIG     H3 4069   9.000   7.126   2.116
  272LIG     CA 4070   9.131   6.965   2.102
  272LIG     HA 4071   9.228   6.952   2.088
  272LIG     CB 4072   9.092   6.908   2.237
  272LIG    HB1 4073   8.994   6.923   2.253
  272LIG    HB2 4074   9.144   6.953   2.309
  272LIG     CG 4075   9.121   6.761   2.242
  272LIG    OD1 4076   9.022   6.682   2.194
  272LIG    OD2 4077   9.227   6.716   2.286
  272LIG      C 4078   9.052   6.893   1.990
  272LIG    OT1 4079   8.970   6.970   1.911
  272LIG    OT2 4080   9.070   6.758   1.978
  273LIG      N 4081   8.578   8.782   3.224
  273LIG     H1 4082   8.658   8.722   3.226
  273LIG     H2 4083   8.566   8.817   3.131
  273LIG     H3 4084   8.591   8.858   3.287
  273LIG     CA 4085   8.455   8.703   3.265
  273LIG     HA 4086   8.442   8.626   3.203
  273LIG     CB 4087   8.476   8.650   3.405
  273LIG    HB1 4088   8.492   8.726   3.468
  273LIG    HB2 4089   8.556   8.590   3.407
  273LIG     CG 4090   8.356   8.572   3.450
  273LIG    OD1 4091   8.258   8.647   3.506
  273LIG    OD2 4092   8.347   8.450   3.437
  273LIG      C 4093   8.330   8.795   3.262
  273LIG    OT1 4094   8.348   8.925   3.224
  273LIG    OT2 4095   8.211   8.738   3.296
  274LIG      N 4096   5.309   6.293  -0.009
  274LIG     H1 4097   5.286   6.391  -0.004
  274LIG     H2 4098   5.405   6.283  -0.036
  274LIG     H3 4099   5.250   6.249  -0.077
  274LIG     CA 4100   5.287   6.228   0.126
  274LIG     HA 4101   5.345   6.272   0.194
  274LIG     CB 4102   5.142   6.246   0.165
  274LIG    HB1 4103   5.083   6.204   0.096
  274LIG    HB2 4104   5.120   6.343   0.172
  274LIG     CG 4105   5.116   6.181   0.298
  274LIG    OD1 4106   5.085   6.050   0.292
  274LIG    OD2 4107   5.121   6.243   0.404
  274LIG      C 4108   5.321   6.077   0.118
  274LIG    OT1 4109   5.364   6.028  -0.003
  274LIG    OT2 4110   5.306   6.004   0.232
  275LIG      N 4111   7.812   5.438   1.704
  275LIG     H1 4112   7.716   5.434   1.732
  275LIG     H2 4113   7.822   5.501   1.626
  275LIG     H3 4114   7.844   5.347   1.679
  275LIG     CA 4115   7.896   5.490   1.821
  275LIG     HA 4116   7.863   5.581   1.847
  275LIG     CB 4117   7.879   5.396   1.938
  275LIG    HB1 4118   7.909   5.304   1.912
  275LIG    HB2 4119   7.783   5.392   1.965
  275LIG     CG 4120   7.961   5.443   2.054
  275LIG    OD1 4121   8.089   5.400   2.054
  275LIG    OD2 4122   7.915   5.514   2.143
  275LIG      C 4123   8.045   5.497   1.779
  275LIG    OT1 4124   8.077   5.459   1.652
  275LIG    OT2 4125   8.133   5.542   1.874
  276LIG      N 4126   6.120   2.707   9.475
  276LIG     H1 4127   6.035   2.758   9.489
  276LIG     H2 4128   6.108   2.641   9.401
  276LIG     H3 4129   6.145   2.660   9.559
  276LIG     CA 4130   6.231   2.805   9.438
  276LIG     HA 4131   6.206   2.853   9.354
  276LIG     CB 4132   6.247   2.905   9.550
  276LIG    HB1 4133   6.269   2.858   9.635
  276LIG    HB2 4134   6.161   2.956   9.562
  276LIG     CG 4135   6.356   3.003   9.517
  276LIG    OD1 4136   6.480   2.962   9.553
  276LIG    OD2 4137   6.334   3.111   9.464
  276LIG      C 4138   6.364   2.728   9.416
  276LIG    OT1 4139   6.361   2.592   9.433
  276LIG    OT2 4140   6.473   2.802   9.382
  277LIG      N 4141   3.495   1.763   6.870
  277LIG     H1 4142   3.547   1.683   6.899
  277LIG     H2 4143   3.558   1.840   6.856
  277LIG     H3 4144   3.427   1.787   6.939
  277LIG     CA 4145   3.424   1.733   6.739
  277LIG     HA 4146   3.491   1.708   6.669
  277LIG     CB 4147   3.330   1.616   6.761
  277LIG    HB1 4148   3.264   1.639   6.832
  277LIG    HB2 4149   3.383   1.536   6.789
  277LIG     CG 4150   3.257   1.583   6.634
  277LIG    OD1 4151   3.143   1.654   6.615
  277LIG    OD2 4152   3.297   1.498   6.555
  277LIG      C 4153   3.343   1.857   6.692
  277LIG    OT1 4154   3.349   1.968   6.771
  277LIG    OT2 4155   3.273   1.845   6.576
  278LIG      N 4156   5.957   1.549   1.159
  278LIG     H1 4157   5.957   1.544   1.259
  278LIG     H2 4158   5.876   1.598   1.128
  278LIG     H3 4159   5.957   1.456   1.122
  278LIG     CA 4160   6.082   1.621   1.112
  278LIG     HA 4161   6.083   1.713   1.150
  278LIG     CB 4162   6.204   1.546   1.160
  278LIG    HB1 4163   6.202   1.452   1.125
  278LIG    HB2 4164   6.204   1.543   1.260
  278LIG     CG 4165   6.329   1.614   1.114
  278LIG    OD1 4166   6.371   1.578   0.991
  278LIG    OD2 4167   6.389   1.696   1.183
  278LIG      C 4168   6.083   1.629   0.957
  278LIG    OT1 4169   5.977   1.572   0.891
  278LIG    OT2 4170   6.189   1.691   0.898
  279LIG      N 4171   1.279   5.982   8.178
  279LIG     H1 4172   1.181   5.966   8.193
  279LIG     H2 4173   1.324   5.896   8.157
  279LIG     H3 4174   1.319   6.022   8.261
  279LIG     CA 4175   1.297   6.079   8.062
  279LIG     HA 4176   1.256   6.040   7.980
  279LIG     CB 4177   1.227   6.209   8.095
  279LIG    HB1 4178   1.265   6.247   8.180
  279LIG    HB2 4179   1.130   6.192   8.109
  279LIG     CG 4180   1.244   6.307   7.984
  279LIG    OD1 4181   1.357   6.381   7.990
  279LIG    OD2 4182   1.161   6.320   7.894
  279LIG      C 4183   1.448   6.105   8.038
  279LIG    OT1 4184   1.537   6.041   8.121
  279LIG    OT2 4185   1.481   6.190   7.937
  280LIG      N 4186   8.660   1.135   6.058
  280LIG     H1 4187   8.700   1.218   6.020
  280LIG     H2 4188   8.732   1.072   6.085
  280LIG     H3 4189   8.601   1.091   5.990
  280LIG     CA 4190   8.576   1.171   6.180
  280LIG     HA 4191   8.634   1.215   6.248
  280LIG     CB 4192   8.467   1.267   6.138
  280LIG    HB1 4193   8.410   1.225   6.067
  280LIG    HB2 4194   8.508   1.350   6.100
  280LIG     CG 4195   8.382   1.304   6.255
  280LIG    OD1 4196   8.279   1.219   6.279
  280LIG    OD2 4197   8.402   1.404   6.323
  280LIG      C 4198   8.512   1.043   6.240
  280LIG    OT1 4199   8.540   0.924   6.178
  280LIG    OT2 4200   8.434   1.058   6.350
  281LIG      N 4201   4.057   0.536   2.763
  281LIG     H1 4202   4.034   0.441   2.785
  281LIG     H2 4203   4.155   0.542   2.741
  281LIG     H3 4204   4.036   0.595   2.841
  281LIG     CA 4205   3.976   0.581   2.642
  281LIG     HA 4206   3.996   0.522   2.564
  281LIG     CB 4207   3.829   0.570   2.676
  281LIG    HB1 4208   3.808   0.627   2.756
  281LIG    HB2 4209   3.807   0.475   2.697
  281LIG     CG 4210   3.745   0.615   2.560
  281LIG    OD1 4211   3.721   0.748   2.556
  281LIG    OD2 4212   3.701   0.537   2.476
  281LIG      C 4213   4.011   0.728   2.607
  281LIG    OT1 4214   4.104   0.791   2.685
  281LIG    OT2 4215   3.946   0.784   2.501
  282LIG      N 4216   0.006   5.547   7.884
  282LIG     H1 4217  -0.050   5.545   7.801
  282LIG     H2 4218  -0.051   5.577   7.961
  282LIG     H3 4219   0.082   5.611   7.872
  282LIG     CA 4220   0.061   5.408   7.913
  282LIG     HA 4221  -0.015   5.345   7.924
  282LIG     CB 4222   0.145   5.364   7.795
  282LIG    HB1 4223   0.220   5.429   7.781
  282LIG    HB2 4224   0.089   5.361   7.713
  282LIG     CG 4225   0.202   5.228   7.820
  282LIG    OD1 4226   0.319   5.227   7.888
  282LIG    OD2 4227   0.147   5.125   7.781
  282LIG      C 4228   0.147   5.411   8.041
  282LIG    OT1 4229   0.160   5.531   8.106
  282LIG    OT2 4230   0.204   5.293   8.080
  283LIG      N 4231   7.973   7.374   1.936
  283LIG     H1 4232   8.059   7.363   1.987
  283LIG     H2 4233   7.900   7.327   1.983
  283LIG     H3 4234   7.984   7.337   1.844
  283LIG     CA 4235   7.940   7.522   1.925
  283LIG     HA 4236   7.930   7.560   2.017
  283LIG     CB 4237   8.053   7.593   1.855
  283LIG    HB1 4238   8.066   7.554   1.763
  283LIG    HB2 4239   8.137   7.582   1.906
  283LIG     CG 4240   8.023   7.739   1.841
  283LIG    OD1 4241   7.950   7.772   1.732
  283LIG    OD2 4242   8.062   7.823   1.923
  283LIG      C 4243   7.808   7.541   1.846
  283LIG    OT1 4244   7.746   7.428   1.800
  283LIG    OT2 4245   7.764   7.669   1.828
  284LIG      N 4246   1.557   2.999   9.712
  284LIG     H1 4247   1.536   2.904   9.737
  284LIG     H2 4248   1.508   3.023   9.628
  284LIG     H3 4249   1.656   3.008   9.697
  284LIG     CA 4250   1.515   3.092   9.824
  284LIG     HA 4251   1.417   3.083   9.839
  284LIG     CB 4252   1.589   3.053   9.950
  284LIG    HB1 4253   1.688   3.060   9.934
  284LIG    HB2 4254   1.566   2.959   9.975
  284LIG     CG 4255   1.551   3.144  10.063
  284LIG    OD1 4256   1.623   3.258  10.071
  284LIG    OD2 4257   1.461   3.116  10.143
  284LIG      C 4258   1.548   3.239   9.786
  284LIG    OT1 4259   1.607   3.260   9.665
  284LIG    OT2 4260   1.516   3.335   9.877
  285LIG      N 4261   9.288   4.915   1.323
  285LIG     H1 4262   9.386   4.899   1.340
  285LIG     H2 4263   9.269   4.909   1.225
  285LIG     H3 4264   9.263   5.006   1.357
  285LIG     CA 4265   9.207   4.810   1.397
  285LIG     HA 4266   9.232   4.719   1.365
  285LIG     CB 4267   9.238   4.820   1.545
  285LIG    HB1 4268   9.215   4.912   1.578
  285LIG    HB2 4269   9.335   4.803   1.560
  285LIG     CG 4270   9.158   4.719   1.622
  285LIG    OD1 4271   9.034   4.760   1.658
  285LIG    OD2 4272   9.202   4.607   1.650
  285LIG      C 4273   9.055   4.834   1.373
  285LIG    OT1 4274   9.021   4.940   1.294
  285LIG    OT2 4275   8.968   4.748   1.433
  286LIG      N 4276   7.987   1.478   5.766
  286LIG     H1 4277   7.975   1.406   5.835
  286LIG     H2 4278   8.083   1.506   5.764
  286LIG     H3 4279   7.929   1.556   5.789
  286LIG     CA 4280   7.947   1.424   5.629
  286LIG     HA 4281   8.004   1.345   5.607
  286LIG     CB 4282   7.802   1.381   5.634
  286LIG    HB1 4283   7.745   1.459   5.660
  286LIG    HB2 4284   7.791   1.309   5.703
  286LIG     CG 4285   7.759   1.329   5.501
  286LIG    OD1 4286   7.714   1.423   5.415
  286LIG    OD2 4287   7.762   1.209   5.472
  286LIG      C 4288   7.965   1.534   5.522
  286LIG    OT1 4289   8.012   1.656   5.564
  286LIG    OT2 4290   7.934   1.502   5.393
  287LIG      N 4291   6.325   0.630   1.359
  287LIG     H1 4292   6.369   0.640   1.269
  287LIG     H2 4293   6.293   0.536   1.370
  287LIG     H3 4294   6.248   0.693   1.366
  287LIG     CA 4295   6.426   0.662   1.468
  287LIG     HA 4296   6.504   0.599   1.461
  287LIG     CB 4297   6.476   0.804   1.449
  287LIG    HB1 4298   6.398   0.867   1.453
  287LIG    HB2 4299   6.519   0.812   1.360
  287LIG     CG 4300   6.574   0.839   1.556
  287LIG    OD1 4301   6.520   0.887   1.670
  287LIG    OD2 4302   6.696   0.827   1.540
  287LIG      C 4303   6.360   0.647   1.608
  287LIG    OT1 4304   6.228   0.610   1.611
  287LIG    OT2 4305   6.438   0.673   1.716
  288LIG      N 4306   9.868   9.339   8.367
  288LIG     H1 4307   9.956   9.294   8.384
  288LIG     H2 4308   9.859   9.359   8.269
  288LIG     H3 4309   9.863   9.424   8.419
  288LIG     CA 4310   9.755   9.247   8.410
  288LIG     HA 4311   9.760   9.162   8.359
  288LIG     CB 4312   9.771   9.216   8.558
  288LIG    HB1 4313   9.769   9.302   8.610
  288LIG    HB2 4314   9.858   9.171   8.574
  288LIG     CG 4315   9.660   9.127   8.605
  288LIG    OD1 4316   9.548   9.191   8.643
  288LIG    OD2 4317   9.672   9.005   8.609
  288LIG      C 4318   9.618   9.315   8.385
  288LIG    OT1 4319   9.620   9.441   8.330
  288LIG    OT2 4320   9.507   9.245   8.419
  289LIG      N 4321   0.651   8.539   8.980
  289LIG     H1 4322   0.745   8.528   9.011
  289LIG     H2 4323   0.648   8.536   8.880
  289LIG     H3 4324   0.616   8.627   9.012
  289LIG     CA 4325   0.565   8.428   9.037
  289LIG     HA 4326   0.600   8.340   9.006
  289LIG     CB 4327   0.572   8.433   9.188
  289LIG    HB1 4328   0.540   8.522   9.220
  289LIG    HB2 4329   0.666   8.420   9.218
  289LIG     CG 4330   0.487   8.325   9.248
  289LIG    OD1 4331   0.357   8.358   9.265
  289LIG    OD2 4332   0.532   8.215   9.280
  289LIG      C 4333   0.418   8.445   8.990
  289LIG    OT1 4334   0.390   8.552   8.910
  289LIG    OT2 4335   0.328   8.353   9.033
  290LIG      N 4336   7.950   0.688   6.258
  290LIG     H1 4337   7.963   0.726   6.350
  290LIG     H2 4338   7.896   0.751   6.203
  290LIG     H3 4339   7.903   0.600   6.266
  290LIG     CA 4340   8.085   0.666   6.193
  290LIG     HA 4341   8.134   0.753   6.186
  290LIG     CB 4342   8.167   0.571   6.278
  290LIG    HB1 4343   8.118   0.484   6.288
  290LIG    HB2 4344   8.180   0.611   6.369
  290LIG     CG 4345   8.300   0.546   6.216
  290LIG    OD1 4346   8.303   0.446   6.125
  290LIG    OD2 4347   8.401   0.611   6.246
  290LIG      C 4348   8.066   0.606   6.051
  290LIG    OT1 4349   7.938   0.583   6.009
  290LIG    OT2 4350   8.179   0.580   5.979
  291LIG      N 4351   7.236   1.460   4.892
  291LIG     H1 4352   7.247   1.376   4.945
  291LIG     H2 4353   7.292   1.532   4.932
  291LIG     H3 4354   7.140   1.487   4.893
  291LIG     CA 4355   7.280   1.436   4.749
  291LIG     HA 4356   7.375   1.408   4.747
  291LIG     CB 4357   7.195   1.325   4.690
  291LIG    HB1 4358   7.098   1.351   4.693
  291LIG    HB2 4359   7.208   1.241   4.743
  291LIG     CG 4360   7.234   1.299   4.548
  291LIG    OD1 4361   7.172   1.378   4.457
  291LIG    OD2 4362   7.316   1.212   4.516
  291LIG      C 4363   7.262   1.565   4.665
  291LIG    OT1 4364   7.213   1.675   4.730
  291LIG    OT2 4365   7.297   1.560   4.534
  292LIG      N 4366   1.773   1.018   1.597
  292LIG     H1 4367   1.856   0.972   1.565
  292LIG     H2 4368   1.718   1.047   1.519
  292LIG     H3 4369   1.798   1.098   1.652
  292LIG     CA 4370   1.692   0.923   1.684
  292LIG     HA 4371   1.667   0.842   1.630
  292LIG     CB 4372   1.778   0.879   1.801
  292LIG    HB1 4373   1.805   0.960   1.854
  292LIG    HB2 4374   1.859   0.833   1.768
  292LIG     CG 4375   1.701   0.786   1.890
  292LIG    OD1 4376   1.625   0.847   1.984
  292LIG    OD2 4377   1.708   0.664   1.879
  292LIG      C 4378   1.564   0.993   1.735
  292LIG    OT1 4379   1.544   1.123   1.697
  292LIG    OT2 4380   1.481   0.920   1.815
  293LIG      N 4381   1.682   6.383   2.067
  293LIG     H1 4382   1.707   6.430   2.152
  293LIG     H2 4383   1.765   6.355   2.018
  293LIG     H3 4384   1.628   6.444   2.009
  293LIG     CA 4385   1.599   6.259   2.100
  293LIG     HA 4386   1.653   6.198   2.158
  293LIG     CB 4387   1.475   6.302   2.174
  293LIG    HB1 4388   1.422   6.366   2.118
  293LIG    HB2 4389   1.501   6.348   2.259
  293LIG     CG 4390   1.390   6.183   2.207
  293LIG    OD1 4391   1.304   6.146   2.110
  293LIG    OD2 4392   1.398   6.125   2.315
  293LIG      C 4393   1.560   6.186   1.969
  293LIG    OT1 4394   1.603   6.240   1.851
  293LIG    OT2 4395   1.485   6.073   1.982
  294LIG      N 4396   7.198   9.576   7.501
  294LIG     H1 4397   7.262   9.511   7.542
  294LIG     H2 4398   7.217   9.585   7.403
  294LIG     H3 4399   7.208   9.665   7.545
  294LIG     CA 4400   7.056   9.526   7.520
  294LIG     HA 4401   7.046   9.437   7.476
  294LIG     CB 4402   7.029   9.512   7.668
  294LIG    HB1 4403   7.041   9.601   7.713
  294LIG    HB2 4404   7.092   9.446   7.708
  294LIG     CG 4405   6.889   9.464   7.691
  294LIG    OD1 4406   6.795   9.561   7.696
  294LIG    OD2 4407   6.861   9.345   7.705
  294LIG      C 4408   6.955   9.626   7.457
  294LIG    OT1 4409   7.007   9.738   7.397
  294LIG    OT2 4410   6.823   9.595   7.466
  295LIG      N 4411   1.140   3.686   6.125
  295LIG     H1 4412   1.046   3.721   6.114
  295LIG     H2 4413   1.154   3.659   6.221
  295LIG     H3 4414   1.205   3.757   6.100
  295LIG     CA 4415   1.159   3.565   6.035
  295LIG     HA 4416   1.093   3.494   6.060
  295LIG     CB 4417   1.135   3.606   5.892
  295LIG    HB1 4418   1.199   3.679   5.867
  295LIG    HB2 4419   1.042   3.640   5.882
  295LIG     CG 4420   1.155   3.489   5.800
  295LIG    OD1 4421   1.283   3.470   5.760
  295LIG    OD2 4422   1.062   3.418   5.763
  295LIG      C 4423   1.303   3.509   6.051
  295LIG    OT1 4424   1.386   3.575   6.139
  295LIG    OT2 4425   1.337   3.400   5.977
  296LIG      N 4426   0.575   4.692   6.032
  296LIG     H1 4427   0.647   4.646   6.084
  296LIG     H2 4428   0.612   4.723   5.944
  296LIG     H3 4429   0.541   4.770   6.083
  296LIG     CA 4430   0.461   4.594   6.007
  296LIG     HA 4431   0.495   4.515   5.956
  296LIG     CB 4432   0.408   4.547   6.140
  296LIG    HB1 4433   0.376   4.626   6.193
  296LIG    HB2 4434   0.480   4.501   6.191
  296LIG     CG 4435   0.294   4.451   6.120
  296LIG    OD1 4436   0.173   4.510   6.106
  296LIG    OD2 4437   0.310   4.329   6.117
  296LIG      C 4438   0.348   4.664   5.926
  296LIG    OT1 4439   0.368   4.795   5.892
  296LIG    OT2 4440   0.239   4.589   5.896
  297LIG      N 4441   4.872   8.833   9.739
  297LIG     H1 4442   4.897   8.929   9.724
  297LIG     H2 4443   4.921   8.798   9.818
  297LIG     H3 4444   4.896   8.780   9.658
  297LIG     CA 4445   4.722   8.823   9.763
  297LIG     HA 4446   4.698   8.876   9.843
  297LIG     CB 4447   4.649   8.878   9.642
  297LIG    HB1 4448   4.676   8.826   9.560
  297LIG    HB2 4449   4.674   8.973   9.629
  297LIG     CG 4450   4.501   8.868   9.662
  297LIG    OD1 4451   4.447   8.750   9.625
  297LIG    OD2 4452   4.434   8.961   9.707
  297LIG      C 4453   4.682   8.674   9.785
  297LIG    OT1 4454   4.783   8.581   9.780
  297LIG    OT2 4455   4.551   8.648   9.808
  298LIG      N 4456   4.276   8.464   9.287
  298LIG     H1 4457   4.184   8.487   9.254
  298LIG     H2 4458   4.277   8.469   9.387
  298LIG     H3 4459   4.342   8.530   9.250
  298LIG     CA 4460   4.314   8.324   9.242
  298LIG     HA 4461   4.248   8.259   9.279
  298LIG     CB 4462   4.310   8.319   9.091
  298LIG    HB1 4463   4.374   8.387   9.053
  298LIG    HB2 4464   4.218   8.340   9.059
  298LIG     CG 4465   4.348   8.183   9.043
  298LIG    OD1 4466   4.481   8.163   9.028
  298LIG    OD2 4467   4.265   8.096   9.018
  298LIG      C 4468   4.456   8.289   9.293
  298LIG    OT1 4469   4.522   8.384   9.366
  298LIG    OT2 4470   4.505   8.166   9.260
  299LIG      N 4471   5.680   8.069   7.104
  299LIG     H1 4472   5.672   7.987   7.161
  299LIG     H2 4473   5.770   8.070   7.059
  299LIG     H3 4474   5.669   8.151   7.160
  299LIG     CA 4475   5.571   8.067   6.998
  299LIG     HA 4476   5.580   7.985   6.942
  299LIG     CB 4477   5.436   8.064   7.067
  299LIG    HB1 4478   5.427   8.145   7.126
  299LIG    HB2 4479   5.429   7.982   7.123
  299LIG     CG 4480   5.326   8.063   6.966
  299LIG    OD1 4481   5.287   8.186   6.923
  299LIG    OD2 4482   5.273   7.959   6.925
  299LIG      C 4483   5.582   8.193   6.908
  299LIG    OT1 4484   5.682   8.281   6.936
  299LIG    OT2 4485   5.490   8.206   6.808
  300LIG      N 4486   5.835   0.334   2.615
  300LIG     H1 4487   5.838   0.279   2.531
  300LIG     H2 4488   5.879   0.284   2.689
  300LIG     H3 4489   5.740   0.353   2.639
  300LIG     CA 4490   5.908   0.465   2.591
  300LIG     HA 4491   6.003   0.447   2.566
  300LIG     CB 4492   5.841   0.539   2.478
  300LIG    HB1 4493   5.744   0.556   2.501
  300LIG    HB2 4494   5.845   0.484   2.395
  300LIG     CG 4495   5.909   0.670   2.453
  300LIG    OD1 4496   5.864   0.773   2.529
  300LIG    OD2 4497   5.998   0.683   2.369
  300LIG      C 4498   5.904   0.552   2.720
  300LIG    OT1 4499   5.839   0.499   2.829
  300LIG    OT2 4500   5.965   0.673   2.715
  301LIG      N 4501  -0.018   3.389   7.675
  301LIG     H1 4502  -0.008   3.424   7.768
  301LIG     H2 4503  -0.095   3.435   7.630
  301LIG     H3 4504  -0.035   3.290   7.679
  301LIG     CA 4505   0.109   3.415   7.596
  301LIG     HA 4506   0.127   3.513   7.593
  301LIG     CB 4507   0.225   3.346   7.666
  301LIG    HB1 4508   0.206   3.248   7.673
  301LIG    HB2 4509   0.235   3.383   7.758
  301LIG     CG 4510   0.352   3.368   7.591
  301LIG    OD1 4511   0.375   3.279   7.492
  301LIG    OD2 4512   0.430   3.460   7.617
  301LIG      C 4513   0.094   3.359   7.452
  301LIG    OT1 4514  -0.024   3.299   7.420
  301LIG    OT2 4515   0.201   3.374   7.369
  302LIG      N 4516   6.642   1.163   6.476
  302LIG     H1 4517   6.651   1.158   6.576
  302LIG     H2 4518   6.646   1.071   6.437
  302LIG     H3 4519   6.716   1.219   6.438
  302LIG     CA 4520   6.509   1.228   6.441
  302LIG     HA 4521   6.434   1.173   6.479
  302LIG     CB 4522   6.504   1.367   6.501
  302LIG    HB1 4523   6.580   1.421   6.465
  302LIG    HB2 4524   6.513   1.361   6.600
  302LIG     CG 4525   6.375   1.434   6.467
  302LIG    OD1 4526   6.374   1.499   6.348
  302LIG    OD2 4527   6.277   1.431   6.542
  302LIG      C 4528   6.494   1.237   6.286
  302LIG    OT1 4529   6.596   1.188   6.211
  302LIG    OT2 4530   6.379   1.292   6.239
  303LIG      N 4531   9.939   0.025   1.137
  303LIG     H1 4532   9.925   0.082   1.056
  303LIG     H2 4533   9.949  -0.070   1.110
  303LIG     H3 4534   9.860   0.034   1.198
  303LIG     CA 4535  10.063   0.071   1.211
  303LIG     HA 4536  10.142   0.063   1.150
  303LIG     CB 4537  10.046   0.216   1.251
  303LIG    HB1 4538   9.965   0.225   1.310
  303LIG    HB2 4539  10.033   0.272   1.170
  303LIG     CG 4540  10.167   0.264   1.325
  303LIG    OD1 4541  10.165   0.240   1.458
  303LIG    OD2 4542  10.260   0.322   1.269
  303LIG      C 4543  10.086  -0.016   1.337
  303LIG    OT1 4544   9.995  -0.116   1.361
  303LIG    OT2 4545  10.194   0.013   1.414
  304LIG      N 4546   5.235   1.241   7.657
  304LIG     H1 4547   5.191   1.328   7.635
  304LIG     H2 4548   5.202   1.208   7.745
  304LIG     H3 4549   5.334   1.254   7.661
  304LIG     CA 4550   5.202   1.139   7.549
  304LIG     HA 4551   5.103   1.127   7.545
  304LIG     CB 4552   5.251   1.191   7.416
  304LIG    HB1 4553   5.350   1.206   7.420
  304LIG    HB2 4554   5.206   1.277   7.395
  304LIG     CG 4555   5.222   1.092   7.307
  304LIG    OD1 4556   5.315   0.996   7.290
  304LIG    OD2 4557   5.120   1.099   7.238
  304LIG      C 4558   5.270   1.003   7.582
  304LIG    OT1 4559   5.345   0.997   7.696
  304LIG    OT2 4560   5.250   0.901   7.494
  305LIG      N 4561   0.152   8.274   2.074
  305LIG     H1 4562   0.074   8.314   2.028
  305LIG     H2 4563   0.145   8.289   2.173
  305LIG     H3 4564   0.237   8.316   2.040
  305LIG     CA 4565   0.156   8.124   2.047
  305LIG     HA 4566   0.072   8.082   2.080
  305LIG     CB 4567   0.166   8.103   1.897
  305LIG    HB1 4568   0.249   8.147   1.862
  305LIG    HB2 4569   0.087   8.142   1.852
  305LIG     CG 4570   0.172   7.956   1.866
  305LIG    OD1 4571   0.295   7.902   1.870
  305LIG    OD2 4572   0.071   7.891   1.839
  305LIG      C 4573   0.278   8.060   2.118
  305LIG    OT1 4574   0.359   8.144   2.190
  305LIG    OT2 4575   0.296   7.926   2.103
  306LIG      N 4576   0.074   0.039   4.268
  306LIG     H1 4577   0.082  -0.054   4.230
  306LIG     H2 4578   0.089   0.035   4.367
  306LIG     H3 4579  -0.017   0.075   4.249
  306LIG     CA 4580   0.178   0.129   4.205
  306LIG     HA 4581   0.269   0.094   4.223
  306LIG     CB 4582   0.156   0.132   4.055
  306LIG    HB1 4583   0.063   0.166   4.036
  306LIG    HB2 4584   0.165   0.040   4.018
  306LIG     CG 4585   0.256   0.222   3.989
  306LIG    OD1 4586   0.220   0.352   3.984
  306LIG    OD2 4587   0.361   0.180   3.942
  306LIG      C 4588   0.166   0.273   4.263
  306LIG    OT1 4589   0.069   0.294   4.357
  306LIG    OT2 4590   0.253   0.367   4.215
  307LIG      N 4591   6.760   9.859   2.647
  307LIG     H1 4592   6.693   9.925   2.683
  307LIG     H2 4593   6.712   9.784   2.603
  307LIG     H3 4594   6.816   9.825   2.723
  307LIG     CA 4595   6.851   9.929   2.547
  307LIG     HA 4596   6.795   9.964   2.472
  307LIG     CB 4597   6.921  10.044   2.615
  307LIG    HB1 4598   6.974  10.009   2.693
  307LIG    HB2 4599   6.853  10.109   2.649
  307LIG     CG 4600   7.012  10.114   2.519
  307LIG    OD1 4601   7.136  10.061   2.509
  307LIG    OD2 4602   6.977  10.213   2.455
  307LIG      C 4603   6.955   9.828   2.491
  307LIG    OT1 4604   6.950   9.700   2.539
  307LIG    OT2 4605   7.044   9.876   2.400
  308LIG      N 4606   0.920   4.402   5.597
  308LIG     H1 4607   0.959   4.413   5.689
  308LIG     H2 4608   0.836   4.347   5.603
  308LIG     H3 4609   0.986   4.357   5.538
  308LIG     CA 4610   0.886   4.539   5.540
  308LIG     HA 4611   0.821   4.585   5.600
  308LIG     CB 4612   1.013   4.622   5.534
  308LIG    HB1 4613   1.081   4.575   5.476
  308LIG    HB2 4614   1.051   4.633   5.625
  308LIG     CG 4615   0.984   4.757   5.476
  308LIG    OD1 4616   0.988   4.763   5.341
  308LIG    OD2 4617   0.960   4.855   5.547
  308LIG      C 4618   0.826   4.524   5.398
  308LIG    OT1 4619   0.813   4.397   5.349
  308LIG    OT2 4620   0.791   4.638   5.333
  309LIG      N 4621   2.056   0.341   4.788
  309LIG     H1 4622   1.965   0.355   4.826
  309LIG     H2 4623   2.122   0.327   4.862
  309LIG     H3 4624   2.082   0.421   4.734
  309LIG     CA 4625   2.055   0.218   4.699
  309LIG     HA 4626   2.028   0.138   4.752
  309LIG     CB 4627   1.954   0.239   4.588
  309LIG    HB1 4628   1.979   0.321   4.535
  309LIG    HB2 4629   1.863   0.253   4.627
  309LIG     CG 4630   1.951   0.121   4.497
  309LIG    OD1 4631   2.042   0.123   4.397
  309LIG    OD2 4632   1.870   0.028   4.511
  309LIG      C 4633   2.196   0.195   4.638
  309LIG    OT1 4634   2.294   0.284   4.672
  309LIG    OT2 4635   2.211   0.088   4.555
  310LIG      N 4636   2.795   5.587   9.620
  310LIG     H1 4637   2.802   5.506   9.562
  310LIG     H2 4638   2.716   5.578   9.680
  310LIG     H3 4639   2.784   5.668   9.562
  310LIG     CA 4640   2.921   5.602   9.703
  310LIG     HA 4641   2.933   5.521   9.760
  310LIG     CB 4642   3.040   5.615   9.610
  310LIG    HB1 4643   3.027   5.694   9.550
  310LIG    HB2 4644   3.047   5.533   9.554
  310LIG     CG 4645   3.166   5.631   9.689
  310LIG    OD1 4646   3.195   5.759   9.723
  310LIG    OD2 4647   3.238   5.536   9.719
  310LIG      C 4648   2.911   5.729   9.793
  310LIG    OT1 4649   2.796   5.802   9.783
  310LIG    OT2 4650   3.017   5.756   9.874
  311LIG      N 4651   1.785   8.281   0.320
  311LIG     H1 4652   1.746   8.226   0.246
  311LIG     H2 4653   1.711   8.324   0.372
  311LIG     H3 4654   1.846   8.351   0.282
  311LIG     CA 4655   1.866   8.191   0.413
  311LIG     HA 4656   1.806   8.120   0.451
  311LIG     CB 4657   1.976   8.125   0.333
  311LIG    HB1 4658   2.035   8.195   0.292
  311LIG    HB2 4659   1.936   8.070   0.260
  311LIG     CG 4660   2.058   8.036   0.422
  311LIG    OD1 4661   2.159   8.099   0.486
  311LIG    OD2 4662   2.036   7.916   0.434
  311LIG      C 4663   1.927   8.275   0.528
  311LIG    OT1 4664   1.900   8.409   0.529
  311LIG    OT2 4665   2.002   8.208   0.620
  312LIG      N 4666   9.842   9.590   2.898
  312LIG     H1 4667   9.797   9.501   2.889
  312LIG     H2 4668   9.777   9.663   2.877
  312LIG     H3 4669   9.920   9.595   2.835
  312LIG     CA 4670   9.893   9.608   3.040
  312LIG     HA 4671   9.817   9.602   3.104
  312LIG     CB 4672   9.991   9.496   3.071
  312LIG    HB1 4673  10.067   9.499   3.006
  312LIG    HB2 4674   9.945   9.408   3.063
  312LIG     CG 4675  10.045   9.511   3.210
  312LIG    OD1 4676  10.152   9.591   3.221
  312LIG    OD2 4677   9.994   9.453   3.307
  312LIG      C 4678   9.964   9.745   3.055
  312LIG    OT1 4679   9.969   9.825   2.944
  312LIG    OT2 4680  10.015   9.776   3.177
  313LIG      N 4681   6.839   0.103   8.546
  313LIG     H1 4682   6.769   0.051   8.596
  313LIG     H2 4683   6.865   0.052   8.463
  313LIG     H3 4684   6.919   0.116   8.604
  313LIG     CA 4685   6.782   0.238   8.506
  313LIG     HA 4686   6.702   0.225   8.449
  313LIG     CB 4687   6.742   0.312   8.632
  313LIG    HB1 4688   6.821   0.323   8.692
  313LIG    HB2 4689   6.672   0.260   8.681
  313LIG     CG 4690   6.687   0.447   8.597
  313LIG    OD1 4691   6.780   0.545   8.585
  313LIG    OD2 4692   6.566   0.468   8.583
  313LIG      C 4693   6.889   0.320   8.429
  313LIG    OT1 4694   7.011   0.261   8.410
  313LIG    OT2 4695   6.854   0.445   8.387
  314LIG      N 4696   0.206   8.913   1.120
  314LIG     H1 4697   0.270   8.955   1.184
  314LIG     H2 4698   0.179   8.823   1.154
  314LIG     H3 4699   0.250   8.903   1.030
  314LIG     CA 4700   0.083   9.001   1.105
  314LIG     HA 4701   0.039   9.011   1.194
  314LIG     CB 4702   0.125   9.137   1.054
  314LIG    HB1 4703   0.172   9.127   0.966
  314LIG    HB2 4704   0.188   9.178   1.120
  314LIG     CG 4705   0.006   9.226   1.037
  314LIG    OD1 4706  -0.056   9.215   0.918
  314LIG    OD2 4707  -0.031   9.304   1.125
  314LIG      C 4708  -0.017   8.936   1.005
  314LIG    OT1 4709   0.020   8.817   0.949
  314LIG    OT2 4710  -0.133   9.003   0.981
  315LIG      N 4711   5.069   9.413   6.037
  315LIG     H1 4712   5.148   9.464   6.004
  315LIG     H2 4713   5.066   9.417   6.137
  315LIG     H3 4714   5.077   9.317   6.007
  315LIG     CA 4715   4.942   9.472   5.980
  315LIG     HA 4716   4.934   9.567   6.009
  315LIG     CB 4717   4.949   9.467   5.829
  315LIG    HB1 4718   4.959   9.371   5.799
  315LIG    HB2 4719   5.027   9.519   5.797
  315LIG     CG 4720   4.824   9.524   5.769
  315LIG    OD1 4721   4.722   9.435   5.755
  315LIG    OD2 4722   4.815   9.641   5.734
  315LIG      C 4723   4.818   9.392   6.030
  315LIG    OT1 4724   4.842   9.286   6.114
  315LIG    OT2 4725   4.696   9.434   5.987
  316LIG      N 4726   9.157   2.400   2.431
  316LIG     H1 4727   9.115   2.440   2.513
  316LIG     H2 4728   9.252   2.377   2.450
  316LIG     H3 4729   9.153   2.466   2.356
  316LIG     CA 4730   9.081   2.275   2.391
  316LIG     HA 4731   9.084   2.209   2.465
  316LIG     CB 4732   8.937   2.312   2.364
  316LIG    HB1 4733   8.932   2.380   2.291
  316LIG    HB2 4734   8.896   2.350   2.446
  316LIG     CG 4735   8.859   2.191   2.323
  316LIG    OD1 4736   8.863   2.162   2.190
  316LIG    OD2 4737   8.795   2.123   2.403
  316LIG      C 4738   9.144   2.213   2.263
  316LIG    OT1 4739   9.253   2.277   2.210
  316LIG    OT2 4740   9.087   2.099   2.215
  317LIG      N 4741   0.385   7.573   1.831
  317LIG     H1 4742   0.381   7.672   1.816
  317LIG     H2 4743   0.481   7.543   1.828
  317LIG     H3 4744   0.333   7.527   1.759
  317LIG     CA 4745   0.325   7.540   1.966
  317LIG     HA 4746   0.376   7.586   2.038
  317LIG     CB 4747   0.181   7.588   1.969
  317LIG    HB1 4748   0.130   7.543   1.895
  317LIG    HB2 4749   0.179   7.686   1.955
  317LIG     CG 4750   0.118   7.555   2.100
  317LIG    OD1 4751   0.064   7.431   2.108
  317LIG    OD2 4752   0.115   7.635   2.194
  317LIG      C 4753   0.330   7.386   1.990
  317LIG    OT1 4754   0.385   7.309   1.891
  317LIG    OT2 4755   0.279   7.340   2.108
  318LIG      N 4756   7.505   6.719   0.861
  318LIG     H1 4757   7.567   6.746   0.934
  318LIG     H2 4758   7.451   6.798   0.832
  318LIG     H3 4759   7.443   6.647   0.895
  318LIG     CA 4760   7.585   6.665   0.743
  318LIG     HA 4761   7.647   6.735   0.710
  318LIG     CB 4762   7.666   6.546   0.790
  318LIG    HB1 4763   7.604   6.475   0.826
  318LIG    HB2 4764   7.729   6.574   0.862
  318LIG     CG 4765   7.745   6.489   0.676
  318LIG    OD1 4766   7.679   6.398   0.601
  318LIG    OD2 4767   7.861   6.522   0.654
  318LIG      C 4768   7.488   6.622   0.629
  318LIG    OT1 4769   7.354   6.638   0.651
  318LIG    OT2 4770   7.545   6.571   0.516
  319LIG      N 4771   0.554   9.394   4.830
  319LIG     H1 4772   0.610   9.453   4.887
  319LIG     H2 4773   0.608   9.360   4.753
  319LIG     H3 4774   0.475   9.445   4.796
  319LIG     CA 4775   0.504   9.276   4.913
  319LIG     HA 4776   0.582   9.225   4.948
  319LIG     CB 4777   0.424   9.329   5.030
  319LIG    HB1 4778   0.347   9.383   4.996
  319LIG    HB2 4779   0.482   9.388   5.087
  319LIG     CG 4780   0.372   9.216   5.113
  319LIG    OD1 4781   0.255   9.164   5.072
  319LIG    OD2 4782   0.432   9.174   5.212
  319LIG      C 4783   0.415   9.183   4.826
  319LIG    OT1 4784   0.397   9.220   4.695
  319LIG    OT2 4785   0.363   9.073   4.886
  320LIG      N 4786   2.244   2.774   0.876
  320LIG     H1 4787   2.269   2.683   0.908
  320LIG     H2 4788   2.308   2.842   0.912
  320LIG     H3 4789   2.151   2.796   0.908
  320LIG     CA 4790   2.246   2.777   0.724
  320LIG     HA 4791   2.338   2.754   0.692
  320LIG     CB 4792   2.149   2.673   0.672
  320LIG    HB1 4793   2.057   2.693   0.706
  320LIG    HB2 4794   2.176   2.583   0.704
  320LIG     CG 4795   2.147   2.674   0.522
  320LIG    OD1 4796   2.062   2.763   0.467
  320LIG    OD2 4797   2.217   2.598   0.455
  320LIG      C 4798   2.206   2.918   0.673
  320LIG    OT1 4799   2.176   3.012   0.767
  320LIG    OT2 4800   2.203   2.936   0.538
  321LIG      N 4801   5.090   0.937   5.072
  321LIG     H1 4802   5.182   0.973   5.085
  321LIG     H2 4803   5.071   0.927   4.974
  321LIG     H3 4804   5.024   1.000   5.112
  321LIG     CA 4805   5.078   0.802   5.140
  321LIG     HA 4806   5.145   0.739   5.100
  321LIG     CB 4807   5.108   0.818   5.287
  321LIG    HB1 4808   5.043   0.884   5.327
  321LIG    HB2 4809   5.200   0.853   5.299
  321LIG     CG 4810   5.095   0.687   5.358
  321LIG    OD1 4811   4.971   0.656   5.399
  321LIG    OD2 4812   5.192   0.613   5.377
  321LIG      C 4813   4.935   0.745   5.120
  321LIG    OT1 4814   4.846   0.822   5.049
  321LIG    OT2 4815   4.908   0.624   5.176
  322LIG      N 4816   0.664   4.524   9.688
  322LIG     H1 4817   0.669   4.499   9.785
  322LIG     H2 4818   0.734   4.593   9.667
  322LIG     H3 4819   0.573   4.560   9.667
  322LIG     CA 4820   0.689   4.400   9.603
  322LIG     HA 4821   0.779   4.363   9.623
  322LIG     CB 4822   0.584   4.296   9.636
  322LIG    HB1 4823   0.493   4.333   9.618
  322LIG    HB2 4824   0.591   4.272   9.733
  322LIG     CG 4825   0.604   4.173   9.553
  322LIG    OD1 4826   0.545   4.176   9.432
  322LIG    OD2 4827   0.669   4.077   9.593
  322LIG      C 4828   0.681   4.437   9.452
  322LIG    OT1 4829   0.654   4.567   9.421
  322LIG    OT2 4830   0.700   4.336   9.363
  323LIG      N 4831   0.154   0.576   6.623
  323LIG     H1 4832   0.086   0.588   6.695
  323LIG     H2 4833   0.161   0.479   6.598
  323LIG     H3 4834   0.243   0.609   6.655
  323LIG     CA 4835   0.113   0.657   6.501
  323LIG     HA 4836   0.024   0.625   6.469
  323LIG     CB 4837   0.102   0.802   6.540
  323LIG    HB1 4838   0.190   0.835   6.575
  323LIG    HB2 4839   0.033   0.813   6.611
  323LIG     CG 4840   0.062   0.885   6.422
  323LIG    OD1 4841   0.165   0.926   6.344
  323LIG    OD2 4842  -0.055   0.914   6.397
  323LIG      C 4843   0.218   0.640   6.388
  323LIG    OT1 4844   0.325   0.560   6.414
  323LIG    OT2 4845   0.194   0.706   6.271
  324LIG      N 4846   3.924   0.814   9.691
  324LIG     H1 4847   3.860   0.759   9.745
  324LIG     H2 4848   3.873   0.865   9.622
  324LIG     H3 4849   3.991   0.754   9.647
  324LIG     CA 4850   3.997   0.910   9.783
  324LIG     HA 4851   3.931   0.970   9.828
  324LIG     CB 4852   4.072   0.831   9.888
  324LIG    HB1 4853   4.137   0.769   9.843
  324LIG    HB2 4854   4.007   0.777   9.942
  324LIG     CG 4855   4.146   0.923   9.980
  324LIG    OD1 4856   4.269   0.958   9.937
  324LIG    OD2 4857   4.099   0.963  10.086
  324LIG      C 4858   4.097   0.996   9.701
  324LIG    OT1 4859   4.103   0.973   9.566
  324LIG    OT2 4860   4.170   1.088   9.769
  325LIG      N 4861   8.753   1.579   2.180
  325LIG     H1 4862   8.774   1.643   2.105
  325LIG     H2 4863   8.756   1.629   2.267
  325LIG     H3 4864   8.821   1.505   2.181
  325LIG     CA 4865   8.615   1.520   2.160
  325LIG     HA 4866   8.547   1.594   2.159
  325LIG     CB 4867   8.611   1.447   2.028
  325LIG    HB1 4868   8.681   1.375   2.027
  325LIG    HB2 4869   8.631   1.511   1.954
  325LIG     CG 4870   8.476   1.386   2.005
  325LIG    OD1 4871   8.460   1.263   2.059
  325LIG    OD2 4872   8.388   1.444   1.941
  325LIG      C 4873   8.582   1.422   2.276
  325LIG    OT1 4874   8.677   1.404   2.372
  325LIG    OT2 4875   8.460   1.360   2.272
  326LIG      N 4876   0.449   6.401  -0.014
  326LIG     H1 4877   0.464   6.499  -0.028
  326LIG     H2 4878   0.499   6.349  -0.083
  326LIG     H3 4879   0.351   6.381  -0.021
  326LIG     CA 4880   0.498   6.361   0.124
  326LIG     HA 4881   0.596   6.382   0.132
  326LIG     CB 4882   0.423   6.442   0.228
  326LIG    HB1 4883   0.325   6.424   0.219
  326LIG    HB2 4884   0.440   6.539   0.214
  326LIG     CG 4885   0.468   6.404   0.366
  326LIG    OD1 4886   0.404   6.298   0.420
  326LIG    OD2 4887   0.556   6.466   0.426
  326LIG      C 4888   0.475   6.210   0.147
  326LIG    OT1 4889   0.417   6.139   0.046
  326LIG    OT2 4890   0.514   6.159   0.267
  327LIG      N 4891   9.235   0.366   3.245
  327LIG     H1 4892   9.314   0.308   3.223
  327LIG     H2 4893   9.155   0.335   3.193
  327LIG     H3 4894   9.256   0.461   3.220
  327LIG     CA 4895   9.206   0.359   3.393
  327LIG     HA 4896   9.186   0.264   3.418
  327LIG     CB 4897   9.328   0.405   3.470
  327LIG    HB1 4898   9.351   0.499   3.443
  327LIG    HB2 4899   9.405   0.346   3.448
  327LIG     CG 4900   9.302   0.400   3.617
  327LIG    OD1 4901   9.244   0.511   3.668
  327LIG    OD2 4902   9.333   0.303   3.687
  327LIG      C 4903   9.084   0.449   3.428
  327LIG    OT1 4904   9.026   0.517   3.325
  327LIG    OT2 4905   9.045   0.453   3.559
  328LIG      N 4906   4.301   8.402   8.645
  328LIG     H1 4907   4.261   8.427   8.734
  328LIG     H2 4908   4.361   8.323   8.656
  328LIG     H3 4909   4.354   8.480   8.609
  328LIG     CA 4910   4.189   8.369   8.548
  328LIG     HA 4911   4.136   8.292   8.583
  328LIG     CB 4912   4.099   8.489   8.533
  328LIG    HB1 4913   4.153   8.567   8.500
  328LIG    HB2 4914   4.060   8.513   8.621
  328LIG     CG 4915   3.989   8.460   8.436
  328LIG    OD1 4916   4.019   8.483   8.306
  328LIG    OD2 4917   3.878   8.420   8.472
  328LIG      C 4918   4.249   8.330   8.410
  328LIG    OT1 4919   4.386   8.333   8.398
  328LIG    OT2 4920   4.162   8.297   8.311
  329LIG      N 4921   1.700   7.995   5.392
  329LIG     H1 4922   1.663   7.975   5.301
  329LIG     H2 4923   1.695   7.913   5.449
  329LIG     H3 4924   1.646   8.069   5.433
  329LIG     CA 4925   1.844   8.040   5.378
  329LIG     HA 4926   1.898   7.968   5.336
  329LIG     CB 4927   1.849   8.163   5.290
  329LIG    HB1 4928   1.794   8.236   5.331
  329LIG    HB2 4929   1.813   8.141   5.200
  329LIG     CG 4930   1.990   8.211   5.276
  329LIG    OD1 4931   2.032   8.295   5.373
  329LIG    OD2 4932   2.062   8.178   5.182
  329LIG      C 4933   1.903   8.073   5.518
  329LIG    OT1 4934   1.820   8.057   5.626
  329LIG    OT2 4935   2.032   8.115   5.523
  330LIG      N 4936   2.078   9.422   8.305
  330LIG     H1 4937   2.152   9.406   8.239
  330LIG     H2 4938   2.028   9.505   8.280
  330LIG     H3 4939   2.117   9.432   8.397
  330LIG     CA 4940   1.983   9.303   8.305
  330LIG     HA 4941   1.945   9.292   8.213
  330LIG     CB 4942   2.061   9.178   8.341
  330LIG    HB1 4943   2.102   9.190   8.432
  330LIG    HB2 4944   2.133   9.163   8.275
  330LIG     CG 4945   1.970   9.059   8.343
  330LIG    OD1 4946   1.906   9.039   8.460
  330LIG    OD2 4947   1.956   8.985   8.246
  330LIG      C 4948   1.869   9.326   8.407
  330LIG    OT1 4949   1.871   9.443   8.478
  330LIG    OT2 4950   1.775   9.228   8.418
  331LIG      N 4951   0.089   5.130   3.674
  331LIG     H1 4952   0.056   5.035   3.680
  331LIG     H2 4953   0.084   5.172   3.764
  331LIG     H3 4954   0.033   5.181   3.609
  331LIG     CA 4955   0.234   5.131   3.627
  331LIG     HA 4956   0.290   5.079   3.691
  331LIG     CB 4957   0.241   5.064   3.491
  331LIG    HB1 4958   0.182   5.114   3.426
  331LIG    HB2 4959   0.209   4.970   3.497
  331LIG     CG 4960   0.382   5.065   3.440
  331LIG    OD1 4961   0.418   5.177   3.373
  331LIG    OD2 4962   0.458   4.970   3.456
  331LIG      C 4963   0.285   5.277   3.617
  331LIG    OT1 4964   0.198   5.376   3.651
  331LIG    OT2 4965   0.414   5.294   3.576
  332LIG      N 4966   8.664   6.422   7.375
  332LIG     H1 4967   8.692   6.326   7.365
  332LIG     H2 4968   8.744   6.479   7.394
  332LIG     H3 4969   8.598   6.430   7.450
  332LIG     CA 4970   8.599   6.469   7.246
  332LIG     HA 4971   8.664   6.460   7.171
  332LIG     CB 4972   8.479   6.381   7.217
  332LIG    HB1 4973   8.414   6.386   7.293
  332LIG    HB2 4974   8.508   6.286   7.207
  332LIG     CG 4975   8.411   6.425   7.091
  332LIG    OD1 4976   8.319   6.523   7.107
  332LIG    OD2 4977   8.436   6.375   6.981
  332LIG      C 4978   8.553   6.616   7.260
  332LIG    OT1 4979   8.578   6.678   7.379
  332LIG    OT2 4980   8.493   6.673   7.152
  333LIG      N 4981  10.017   2.590   3.455
  333LIG     H1 4982   9.921   2.618   3.456
  333LIG     H2 4983  10.064   2.626   3.536
  333LIG     H3 4984  10.062   2.626   3.372
  333LIG     CA 4985  10.026   2.438   3.453
  333LIG     HA 4986   9.982   2.402   3.535
  333LIG     CB 4987   9.955   2.386   3.331
  333LIG    HB1 4988   9.997   2.425   3.248
  333LIG    HB2 4989   9.859   2.414   3.333
  333LIG     CG 4990   9.963   2.237   3.325
  333LIG    OD1 4991  10.074   2.188   3.266
  333LIG    OD2 4992   9.874   2.164   3.370
  333LIG      C 4993  10.175   2.394   3.451
  333LIG    OT1 4994  10.270   2.493   3.450
  333LIG    OT2 4995  10.200   2.260   3.449
  334LIG      N 4996   9.438   1.758   0.496
  334LIG     H1 4997   9.344   1.730   0.476
  334LIG     H2 4998   9.454   1.756   0.595
  334LIG     H3 4999   9.454   1.850   0.461
  334LIG     CA 5000   9.534   1.662   0.428
  334LIG     HA 5001   9.519   1.569   0.461
  334LIG     CB 5002   9.509   1.665   0.278
  334LIG    HB1 5003   9.522   1.759   0.244
  334LIG    HB2 5004   9.415   1.637   0.260
  334LIG     CG 5005   9.603   1.573   0.207
  334LIG    OD1 5006   9.723   1.627   0.175
  334LIG    OD2 5007   9.573   1.457   0.179
  334LIG      C 5008   9.681   1.704   0.457
  334LIG    OT1 5009   9.700   1.814   0.536
  334LIG    OT2 5010   9.780   1.628   0.402
  335LIG      N 5011   8.699   2.362   8.757
  335LIG     H1 5012   8.746   2.399   8.677
  335LIG     H2 5013   8.649   2.436   8.803
  335LIG     H3 5014   8.766   2.322   8.820
  335LIG     CA 5015   8.600   2.255   8.714
  335LIG     HA 5016   8.534   2.294   8.650
  335LIG     CB 5017   8.676   2.145   8.643
  335LIG    HB1 5018   8.746   2.106   8.705
  335LIG    HB2 5019   8.722   2.181   8.563
  335LIG     CG 5020   8.583   2.036   8.600
  335LIG    OD1 5021   8.558   1.942   8.694
  335LIG    OD2 5022   8.533   2.032   8.488
  335LIG      C 5023   8.527   2.197   8.838
  335LIG    OT1 5024   8.560   2.249   8.960
  335LIG    OT2 5025   8.435   2.099   8.815
  336LIG      N 5026   2.018   5.287   3.949
  336LIG     H1 5027   2.013   5.264   4.047
  336LIG     H2 5028   2.019   5.386   3.939
  336LIG     H3 5029   1.938   5.249   3.902
  336LIG     CA 5030   2.144   5.228   3.888
  336LIG     HA 5031   2.224   5.265   3.936
  336LIG     CB 5032   2.141   5.078   3.906
  336LIG    HB1 5033   2.059   5.040   3.861
  336LIG    HB2 5034   2.137   5.055   4.003
  336LIG     CG 5035   2.263   5.015   3.846
  336LIG    OD1 5036   2.253   4.988   3.714
  336LIG    OD2 5037   2.364   4.991   3.912
  336LIG      C 5038   2.151   5.263   3.737
  336LIG    OT1 5039   2.049   5.338   3.686
  336LIG    OT2 5040   2.259   5.217   3.668
  337LIG      N 5041   6.774   8.407   1.216
  337LIG     H1 5042   6.821   8.464   1.284
  337LIG     H2 5043   6.768   8.313   1.250
  337LIG     H3 5044   6.826   8.409   1.130
  337LIG     CA 5045   6.635   8.461   1.191
  337LIG     HA 5046   6.583   8.460   1.276
  337LIG     CB 5047   6.645   8.603   1.141
  337LIG    HB1 5048   6.700   8.605   1.056
  337LIG    HB2 5049   6.691   8.660   1.209
  337LIG     CG 5050   6.509   8.660   1.113
  337LIG    OD1 5051   6.461   8.633   0.990
  337LIG    OD2 5052   6.447   8.726   1.196
  337LIG      C 5053   6.562   8.373   1.085
  337LIG    OT1 5054   6.631   8.267   1.034
  337LIG    OT2 5055   6.435   8.409   1.052
  338LIG      N 5056   7.632   0.867   7.115
  338LIG     H1 5057   7.541   0.852   7.155
  338LIG     H2 5058   7.697   0.889   7.187
  338LIG     H3 5059   7.627   0.944   7.050
  338LIG     CA 5060   7.677   0.742   7.041
  338LIG     HA 5061   7.681   0.666   7.105
  338LIG     CB 5062   7.577   0.710   6.933
  338LIG    HB1 5063   7.570   0.788   6.869
  338LIG    HB2 5064   7.487   0.694   6.973
  338LIG     CG 5065   7.619   0.588   6.857
  338LIG    OD1 5066   7.703   0.612   6.754
  338LIG    OD2 5067   7.578   0.476   6.885
  338LIG      C 5068   7.817   0.766   6.978
  338LIG    OT1 5069   7.875   0.888   6.998
  338LIG    OT2 5070   7.872   0.662   6.908
  339LIG      N 5071   4.564   1.625   8.613
  339LIG     H1 5072   4.475   1.604   8.654
  339LIG     H2 5073   4.555   1.627   8.514
  339LIG     H3 5074   4.631   1.556   8.640
  339LIG     CA 5075   4.611   1.761   8.662
  339LIG     HA 5076   4.545   1.831   8.636
  339LIG     CB 5077   4.623   1.758   8.813
  339LIG    HB1 5078   4.687   1.686   8.840
  339LIG    HB2 5079   4.534   1.738   8.853
  339LIG     CG 5080   4.670   1.890   8.865
  339LIG    OD1 5081   4.805   1.904   8.867
  339LIG    OD2 5082   4.593   1.978   8.903
  339LIG      C 5083   4.749   1.795   8.599
  339LIG    OT1 5084   4.804   1.702   8.515
  339LIG    OT2 5085   4.805   1.914   8.634
  340LIG      N 5086   2.968   9.544   0.336
  340LIG     H1 5087   2.941   9.638   0.317
  340LIG     H2 5088   2.951   9.523   0.432
  340LIG     H3 5089   3.065   9.533   0.316
  340LIG     CA 5090   2.888   9.449   0.247
  340LIG     HA 5091   2.791   9.461   0.266
  340LIG     CB 5092   2.914   9.484   0.103
  340LIG    HB1 5093   3.013   9.476   0.083
  340LIG    HB2 5094   2.886   9.578   0.085
  340LIG     CG 5095   2.838   9.392   0.012
  340LIG    OD1 5096   2.902   9.276  -0.017
  340LIG    OD2 5097   2.727   9.420  -0.033
  340LIG      C 5098   2.930   9.303   0.275
  340LIG    OT1 5099   3.027   9.282   0.370
  340LIG    OT2 5100   2.867   9.205   0.203
  341LIG      N 5101   6.544   7.969   9.093
  341LIG     H1 5102   6.608   7.938   9.022
  341LIG     H2 5103   6.470   7.902   9.102
  341LIG     H3 5104   6.506   8.058   9.067
  341LIG     CA 5105   6.617   7.983   9.225
  341LIG     HA 5106   6.656   7.894   9.251
  341LIG     CB 5107   6.729   8.083   9.208
  341LIG    HB1 5108   6.691   8.171   9.180
  341LIG    HB2 5109   6.793   8.051   9.138
  341LIG     CG 5110   6.803   8.100   9.337
  341LIG    OD1 5111   6.750   8.192   9.421
  341LIG    OD2 5112   6.905   8.036   9.364
  341LIG      C 5113   6.519   8.031   9.335
  341LIG    OT1 5114   6.389   8.052   9.299
  341LIG    OT2 5115   6.571   8.048   9.460
  342LIG      N 5116   7.891   2.062   3.934
  342LIG     H1 5117   7.809   2.018   3.971
  342LIG     H2 5118   7.881   2.073   3.835
  342LIG     H3 5119   7.971   2.006   3.953
  342LIG     CA 5120   7.909   2.199   3.999
  342LIG     HA 5121   7.829   2.255   3.980
  342LIG     CB 5122   7.922   2.180   4.148
  342LIG    HB1 5123   8.001   2.121   4.168
  342LIG    HB2 5124   7.840   2.137   4.184
  342LIG     CG 5125   7.942   2.312   4.215
  342LIG    OD1 5126   8.071   2.354   4.222
  342LIG    OD2 5127   7.849   2.377   4.262
  342LIG      C 5128   8.036   2.267   3.942
  342LIG    OT1 5129   8.108   2.199   3.848
  342LIG    OT2 5130   8.067   2.391   3.991
  343LIG      N 5131   9.636   9.789   3.975
  343LIG     H1 5132   9.681   9.814   3.889
  343LIG     H2 5133   9.665   9.850   4.048
  343LIG     H3 5134   9.660   9.695   3.998
  343LIG     CA 5135   9.485   9.799   3.957
  343LIG     HA 5136   9.461   9.893   3.933
  343LIG     CB 5137   9.443   9.706   3.845
  343LIG    HB1 5138   9.469   9.612   3.867
  343LIG    HB2 5139   9.488   9.733   3.760
  343LIG     CG 5140   9.294   9.713   3.826
  343LIG    OD1 5141   9.223   9.629   3.905
  343LIG    OD2 5142   9.242   9.787   3.743
  343LIG      C 5143   9.414   9.759   4.089
  343LIG    OT1 5144   9.493   9.723   4.194
  343LIG    OT2 5145   9.277   9.763   4.089
  344LIG      N 5146   0.587   8.112   3.971
  344LIG     H1 5147   0.523   8.188   3.960
  344LIG     H2 5148   0.538   8.026   3.962
  344LIG     H3 5149   0.631   8.118   4.061
  344LIG     CA 5150   0.694   8.121   3.863
  344LIG     HA 5151   0.651   8.117   3.773
  344LIG     CB 5152   0.766   8.254   3.876
  344LIG    HB1 5153   0.807   8.260   3.968
  344LIG    HB2 5154   0.701   8.328   3.865
  344LIG     CG 5155   0.873   8.265   3.772
  344LIG    OD1 5156   0.992   8.211   3.807
  344LIG    OD2 5157   0.854   8.321   3.664
  344LIG      C 5158   0.795   8.004   3.879
  344LIG    OT1 5159   0.773   7.916   3.981
  344LIG    OT2 5160   0.897   7.998   3.789
  345LIG      N 5161   5.640   7.433   9.324
  345LIG     H1 5162   5.579   7.354   9.335
  345LIG     H2 5163   5.585   7.517   9.321
  345LIG     H3 5164   5.692   7.424   9.239
  345LIG     CA 5165   5.736   7.440   9.441
  345LIG     HA 5166   5.684   7.448   9.526
  345LIG     CB 5167   5.817   7.312   9.446
  345LIG    HB1 5168   5.867   7.301   9.359
  345LIG    HB2 5169   5.756   7.234   9.457
  345LIG     CG 5170   5.914   7.315   9.559
  345LIG    OD1 5171   6.032   7.375   9.531
  345LIG    OD2 5172   5.889   7.267   9.670
  345LIG      C 5173   5.831   7.562   9.426
  345LIG    OT1 5174   5.814   7.640   9.315
  345LIG    OT2 5175   5.923   7.581   9.524
  346LIG      N 5176   4.841   8.329   6.499
  346LIG     H1 5177   4.849   8.421   6.459
  346LIG     H2 5178   4.899   8.265   6.450
  346LIG     H3 5179   4.745   8.299   6.495
  346LIG     CA 5180   4.884   8.335   6.645
  346LIG     HA 5181   4.979   8.366   6.650
  346LIG     CB 5182   4.796   8.434   6.719
  346LIG    HB1 5183   4.700   8.405   6.712
  346LIG    HB2 5184   4.805   8.524   6.678
  346LIG     CG 5185   4.835   8.441   6.863
  346LIG    OD1 5186   4.777   8.348   6.942
  346LIG    OD2 5187   4.914   8.525   6.906
  346LIG      C 5188   4.872   8.195   6.710
  346LIG    OT1 5189   4.826   8.093   6.630
  346LIG    OT2 5190   4.907   8.183   6.841
  347LIG      N 5191   7.986   4.000   2.914
  347LIG     H1 5192   7.886   3.991   2.920
  347LIG     H2 5193   8.010   4.055   2.834
  347LIG     H3 5194   8.027   3.909   2.906
  347LIG     CA 5195   8.039   4.066   3.040
  347LIG     HA 5196   7.998   4.157   3.050
  347LIG     CB 5197   8.001   3.982   3.160
  347LIG    HB1 5198   8.039   3.890   3.150
  347LIG    HB2 5199   7.902   3.975   3.166
  347LIG     CG 5200   8.053   4.044   3.286
  347LIG    OD1 5201   8.180   4.009   3.318
  347LIG    OD2 5202   7.985   4.119   3.355
  347LIG      C 5203   8.194   4.079   3.032
  347LIG    OT1 5204   8.254   4.032   2.919
  347LIG    OT2 5205   8.257   4.137   3.138
  348LIG      N 5206   4.570   1.671   6.922
  348LIG     H1 5207   4.612   1.739   6.983
  348LIG     H2 5208   4.500   1.715   6.866
  348LIG     H3 5209   4.529   1.597   6.976
  348LIG     CA 5210   4.677   1.613   6.831
  348LIG     HA 5211   4.719   1.686   6.777
  348LIG     CB 5212   4.784   1.548   6.917
  348LIG    HB1 5213   4.742   1.476   6.973
  348LIG    HB2 5214   4.825   1.616   6.977
  348LIG     CG 5215   4.890   1.487   6.830
  348LIG    OD1 5216   4.865   1.362   6.788
  348LIG    OD2 5217   4.994   1.548   6.801
  348LIG      C 5218   4.614   1.507   6.736
  348LIG    OT1 5219   4.480   1.485   6.748
  348LIG    OT2 5220   4.698   1.446   6.648
  349LIG      N 5221   1.840   0.454   7.601
  349LIG     H1 5222   1.847   0.382   7.671
  349LIG     H2 5223   1.853   0.543   7.644
  349LIG     H3 5224   1.749   0.449   7.558
  349LIG     CA 5225   1.946   0.432   7.495
  349LIG     HA 5226   2.037   0.435   7.538
  349LIG     CB 5227   1.926   0.296   7.433
  349LIG    HB1 5228   1.835   0.290   7.392
  349LIG    HB2 5229   1.935   0.225   7.503
  349LIG     CG 5230   2.029   0.271   7.327
  349LIG    OD1 5231   1.996   0.318   7.204
  349LIG    OD2 5232   2.135   0.212   7.349
  349LIG      C 5233   1.936   0.542   7.386
  349LIG    OT1 5234   1.838   0.636   7.402
  349LIG    OT2 5235   2.025   0.536   7.284
  350LIG      N 5236   1.970   0.561   6.578
  350LIG     H1 5237   1.912   0.480   6.578
  350LIG     H2 5238   2.031   0.558   6.499
  350LIG     H3 5239   2.024   0.564   6.662
  350LIG     CA 5240   1.883   0.685   6.571
  350LIG     HA 5241   1.828   0.683   6.487
  350LIG     CB 5242   1.790   0.687   6.690
  350LIG    HB1 5243   1.845   0.687   6.775
  350LIG    HB2 5244   1.732   0.606   6.689
  350LIG     CG 5245   1.704   0.810   6.687
  350LIG    OD1 5246   1.759   0.919   6.743
  350LIG    OD2 5247   1.591   0.809   6.638
  350LIG      C 5248   1.972   0.813   6.571
  350LIG    OT1 5249   2.107   0.794   6.577
  350LIG    OT2 5250   1.908   0.933   6.564
  351LIG      N 5251   9.756   0.449   4.117
  351LIG     H1 5252   9.791   0.505   4.043
  351LIG     H2 5253   9.727   0.507   4.193
  351LIG     H3 5254   9.828   0.386   4.149
  351LIG     CA 5255   9.638   0.367   4.068
  351LIG     HA 5256   9.566   0.429   4.035
  351LIG     CB 5257   9.683   0.280   3.953
  351LIG    HB1 5258   9.757   0.219   3.984
  351LIG    HB2 5259   9.717   0.337   3.879
  351LIG     CG 5260   9.569   0.197   3.902
  351LIG    OD1 5261   9.551   0.080   3.967
  351LIG    OD2 5262   9.499   0.233   3.807
  351LIG      C 5263   9.582   0.279   4.182
  351LIG    OT1 5264   9.645   0.287   4.304
  351LIG    OT2 5265   9.475   0.199   4.153
  352LIG      N 5266   2.151   2.269   8.980
  352LIG     H1 5267   2.082   2.197   8.989
  352LIG     H2 5268   2.165   2.291   8.883
  352LIG     H3 5269   2.237   2.238   9.021
  352LIG     CA 5270   2.103   2.394   9.053
  352LIG     HA 5271   2.017   2.425   9.014
  352LIG     CB 5272   2.081   2.359   9.199
  352LIG    HB1 5273   2.167   2.325   9.239
  352LIG    HB2 5274   2.012   2.288   9.207
  352LIG     CG 5275   2.035   2.480   9.275
  352LIG    OD1 5276   2.135   2.559   9.322
  352LIG    OD2 5277   1.916   2.505   9.294
  352LIG      C 5278   2.210   2.506   9.041
  352LIG    OT1 5279   2.323   2.477   8.971
  352LIG    OT2 5280   2.181   2.625   9.102
  353LIG      N 5281   8.237   8.404   6.616
  353LIG     H1 5282   8.174   8.360   6.552
  353LIG     H2 5283   8.199   8.493   6.644
  353LIG     H3 5284   8.325   8.417   6.572
  353LIG     CA 5285   8.254   8.317   6.739
  353LIG     HA 5286   8.165   8.303   6.783
  353LIG     CB 5287   8.309   8.182   6.696
  353LIG    HB1 5288   8.397   8.195   6.650
  353LIG    HB2 5289   8.245   8.139   6.633
  353LIG     CG 5290   8.329   8.094   6.815
  353LIG    OD1 5291   8.448   8.108   6.878
  353LIG    OD2 5292   8.243   8.013   6.852
  353LIG      C 5293   8.352   8.384   6.839
  353LIG    OT1 5294   8.404   8.505   6.803
  353LIG    OT2 5295   8.378   8.318   6.955
  354LIG      N 5296   1.836   3.760   0.592
  354LIG     H1 5297   1.880   3.823   0.657
  354LIG     H2 5298   1.891   3.754   0.509
  354LIG     H3 5299   1.744   3.794   0.570
  354LIG     CA 5300   1.823   3.622   0.655
  354LIG     HA 5301   1.914   3.588   0.678
  354LIG     CB 5302   1.741   3.634   0.782
  354LIG    HB1 5303   1.650   3.670   0.759
  354LIG    HB2 5304   1.786   3.695   0.846
  354LIG     CG 5305   1.725   3.499   0.846
  354LIG    OD1 5306   1.622   3.426   0.800
  354LIG    OD2 5307   1.801   3.459   0.935
  354LIG      C 5308   1.755   3.525   0.556
  354LIG    OT1 5309   1.718   3.575   0.434
  354LIG    OT2 5310   1.736   3.396   0.598
  355LIG      N 5311   8.871   3.708   9.717
  355LIG     H1 5312   8.897   3.784   9.777
  355LIG     H2 5313   8.874   3.737   9.622
  355LIG     H3 5314   8.779   3.677   9.740
  355LIG     CA 5315   8.969   3.593   9.738
  355LIG     HA 5316   9.061   3.624   9.716
  355LIG     CB 5317   8.964   3.550   9.883
  355LIG    HB1 5318   8.871   3.522   9.907
  355LIG    HB2 5319   8.991   3.627   9.941
  355LIG     CG 5320   9.058   3.436   9.907
  355LIG    OD1 5321   9.006   3.314   9.882
  355LIG    OD2 5322   9.174   3.453   9.947
  355LIG      C 5323   8.930   3.474   9.647
  355LIG    OT1 5324   8.820   3.489   9.566
  355LIG    OT2 5325   9.008   3.362   9.654
  356LIG      N 5326  -0.062   4.281   5.845
  356LIG     H1 5327  -0.005   4.199   5.839
  356LIG     H2 5328  -0.126   4.284   5.768
  356LIG     H3 5329  -0.003   4.363   5.843
  356LIG     CA 5330  -0.139   4.279   5.976
  356LIG     HA 5331  -0.197   4.198   5.979
  356LIG     CB 5332  -0.041   4.274   6.091
  356LIG    HB1 5333   0.019   4.354   6.087
  356LIG    HB2 5334   0.014   4.191   6.084
  356LIG     CG 5335  -0.114   4.273   6.222
  356LIG    OD1 5336  -0.145   4.395   6.270
  356LIG    OD2 5337  -0.143   4.169   6.281
  356LIG      C 5338  -0.228   4.406   5.987
  356LIG    OT1 5339  -0.222   4.496   5.884
  356LIG    OT2 5340  -0.304   4.419   6.100
  357LIG      N 5341   8.089   0.239   8.766
  357LIG     H1 5342   8.181   0.252   8.803
  357LIG     H2 5343   8.030   0.199   8.836
  357LIG     H3 5344   8.094   0.178   8.687
  357LIG     CA 5345   8.032   0.373   8.722
  357LIG     HA 5346   8.028   0.434   8.801
  357LIG     CB 5347   8.123   0.433   8.617
  357LIG    HB1 5348   8.130   0.370   8.539
  357LIG    HB2 5349   8.214   0.446   8.656
  357LIG     CG 5350   8.070   0.564   8.570
  357LIG    OD1 5351   7.980   0.557   8.470
  357LIG    OD2 5352   8.106   0.672   8.619
  357LIG      C 5353   7.890   0.353   8.663
  357LIG    OT1 5354   7.840   0.226   8.661
  357LIG    OT2 5355   7.825   0.465   8.619
  358LIG      N 5356   1.078   7.377   5.438
  358LIG     H1 5357   1.047   7.288   5.471
  358LIG     H2 5358   1.139   7.364   5.359
  358LIG     H3 5359   1.127   7.424   5.511
  358LIG     CA 5360   0.958   7.460   5.396
  358LIG     HA 5361   0.908   7.413   5.324
  358LIG     CB 5362   0.867   7.477   5.515
  358LIG    HB1 5363   0.917   7.523   5.590
  358LIG    HB2 5364   0.835   7.388   5.547
  358LIG     CG 5365   0.747   7.561   5.479
  358LIG    OD1 5366   0.766   7.694   5.489
  358LIG    OD2 5367   0.641   7.511   5.442
  358LIG      C 5368   1.005   7.599   5.345
  358LIG    OT1 5369   1.139   7.624   5.345
  358LIG    OT2 5370   0.908   7.686   5.304
  359LIG      N 5371   6.477   5.191   0.451
  359LIG     H1 5372   6.474   5.151   0.543
  359LIG     H2 5373   6.436   5.127   0.386
  359LIG     H3 5374   6.572   5.208   0.426
  359LIG     CA 5375   6.400   5.322   0.450
  359LIG     HA 5376   6.305   5.305   0.476
  359LIG     CB 5377   6.463   5.416   0.550
  359LIG    HB1 5378   6.559   5.432   0.526
  359LIG    HB2 5379   6.458   5.376   0.641
  359LIG     CG 5380   6.390   5.547   0.551
  359LIG    OD1 5381   6.433   5.636   0.459
  359LIG    OD2 5382   6.299   5.572   0.630
  359LIG      C 5383   6.404   5.385   0.308
  359LIG    OT1 5384   6.473   5.316   0.212
  359LIG    OT2 5385   6.340   5.503   0.291
  360LIG      N 5386   2.512   9.313   8.470
  360LIG     H1 5387   2.544   9.404   8.497
  360LIG     H2 5388   2.518   9.303   8.371
  360LIG     H3 5389   2.418   9.301   8.500
  360LIG     CA 5390   2.599   9.207   8.536
  360LIG     HA 5391   2.694   9.219   8.508
  360LIG     CB 5392   2.591   9.223   8.686
  360LIG    HB1 5393   2.495   9.214   8.716
  360LIG    HB2 5394   2.623   9.314   8.712
  360LIG     CG 5395   2.674   9.120   8.755
  360LIG    OD1 5396   2.611   9.002   8.777
  360LIG    OD2 5397   2.790   9.141   8.790
  360LIG      C 5398   2.550   9.065   8.495
  360LIG    OT1 5399   2.443   9.058   8.411
  360LIG    OT2 5400   2.618   8.959   8.547
  361LIG      N 5401   4.153   7.141   9.730
  361LIG     H1 5402   4.237   7.092   9.751
  361LIG     H2 5403   4.150   7.162   9.633
  361LIG     H3 5404   4.150   7.226   9.783
  361LIG     CA 5405   4.033   7.055   9.768
  361LIG     HA 5406   4.036   6.970   9.716
  361LIG     CB 5407   4.040   7.023   9.915
  361LIG    HB1 5408   4.040   7.108   9.968
  361LIG    HB2 5409   4.124   6.973   9.935
  361LIG     CG 5410   3.923   6.939   9.956
  361LIG    OD1 5411   3.812   7.009   9.990
  361LIG    OD2 5412   3.928   6.816   9.960
  361LIG      C 5413   3.902   7.131   9.737
  361LIG    OT1 5414   3.913   7.257   9.683
  361LIG    OT2 5415   3.785   7.067   9.765
  362LIG      N 5416   4.860   8.031   3.413
  362LIG     H1 5417   4.875   7.933   3.398
  362LIG     H2 5418   4.840   8.048   3.510
  362LIG     H3 5419   4.783   8.062   3.357
  362LIG     CA 5420   4.985   8.108   3.373
  362LIG     HA 5421   5.062   8.077   3.428
  362LIG     CB 5422   5.015   8.081   3.227
  362LIG    HB1 5423   4.937   8.109   3.171
  362LIG    HB2 5424   5.030   7.983   3.214
  362LIG     CG 5425   5.137   8.156   3.183
  362LIG    OD1 5426   5.113   8.282   3.142
  362LIG    OD2 5427   5.249   8.106   3.184
  362LIG      C 5428   4.963   8.260   3.394
  362LIG    OT1 5429   4.842   8.300   3.443
  362LIG    OT2 5430   5.067   8.343   3.363
  363LIG      N 5431   1.860   0.972   0.638
  363LIG     H1 5432   1.918   1.021   0.572
  363LIG     H2 5433   1.771   1.016   0.643
  363LIG     H3 5434   1.904   0.973   0.728
  363LIG     CA 5435   1.844   0.828   0.593
  363LIG     HA 5436   1.801   0.826   0.503
  363LIG     CB 5437   1.980   0.763   0.584
  363LIG    HB1 5438   2.025   0.767   0.673
  363LIG    HB2 5439   2.036   0.812   0.518
  363LIG     CG 5440   1.968   0.621   0.541
  363LIG    OD1 5441   1.946   0.533   0.641
  363LIG    OD2 5442   1.977   0.586   0.423
  363LIG      C 5443   1.755   0.751   0.694
  363LIG    OT1 5444   1.708   0.820   0.802
  363LIG    OT2 5445   1.731   0.619   0.667
  364LIG      N 5446   7.084   1.322   8.591
  364LIG     H1 5447   7.081   1.283   8.499
  364LIG     H2 5448   7.119   1.254   8.655
  364LIG     H3 5449   6.991   1.350   8.618
  364LIG     CA 5450   7.174   1.444   8.592
  364LIG     HA 5451   7.266   1.417   8.564
  364LIG     CB 5452   7.121   1.545   8.493
  364LIG    HB1 5453   7.027   1.571   8.518
  364LIG    HB2 5454   7.120   1.505   8.401
  364LIG     CG 5455   7.207   1.668   8.492
  364LIG    OD1 5456   7.175   1.760   8.585
  364LIG    OD2 5457   7.299   1.683   8.411
  364LIG      C 5458   7.179   1.506   8.734
  364LIG    OT1 5459   7.104   1.445   8.831
  364LIG    OT2 5460   7.256   1.617   8.751
  365LIG      N 5461   1.849   4.532   5.423
  365LIG     H1 5462   1.770   4.471   5.417
  365LIG     H2 5463   1.932   4.478   5.439
  365LIG     H3 5464   1.836   4.598   5.497
  365LIG     CA 5465   1.864   4.609   5.292
  365LIG     HA 5466   1.877   4.544   5.217
  365LIG     CB 5467   1.738   4.688   5.268
  365LIG    HB1 5468   1.723   4.752   5.344
  365LIG    HB2 5469   1.660   4.627   5.261
  365LIG     CG 5470   1.749   4.766   5.140
  365LIG    OD1 5471   1.808   4.887   5.153
  365LIG    OD2 5472   1.707   4.724   5.033
  365LIG      C 5473   1.986   4.704   5.300
  365LIG    OT1 5474   2.058   4.705   5.417
  365LIG    OT2 5475   2.013   4.780   5.190
  366LIG      N 5476   5.913  -0.022   5.078
  366LIG     H1 5477   5.853   0.057   5.085
  366LIG     H2 5478   5.955  -0.041   5.167
  366LIG     H3 5479   5.985  -0.003   5.010
  366LIG     CA 5480   5.833  -0.143   5.033
  366LIG     HA 5481   5.761  -0.162   5.099
  366LIG     CB 5482   5.770  -0.112   4.899
  366LIG    HB1 5483   5.841  -0.091   4.832
  366LIG    HB2 5484   5.709  -0.034   4.907
  366LIG     CG 5485   5.691  -0.230   4.850
  366LIG    OD1 5486   5.762  -0.322   4.781
  366LIG    OD2 5487   5.570  -0.241   4.871
  366LIG      C 5488   5.926  -0.267   5.020
  366LIG    OT1 5489   6.058  -0.249   5.050
  366LIG    OT2 5490   5.868  -0.384   4.980
  367LIG      N 5491   9.796   3.169   5.608
  367LIG     H1 5492   9.765   3.255   5.566
  367LIG     H2 5493   9.732   3.142   5.680
  367LIG     H3 5494   9.887   3.181   5.646
  367LIG     CA 5495   9.801   3.060   5.502
  367LIG     HA 5496   9.710   3.048   5.462
  367LIG     CB 5497   9.896   3.103   5.392
  367LIG    HB1 5498   9.987   3.118   5.431
  367LIG    HB2 5499   9.864   3.188   5.351
  367LIG     CG 5500   9.905   2.997   5.286
  367LIG    OD1 5501   9.995   2.900   5.311
  367LIG    OD2 5502   9.835   3.000   5.185
  367LIG      C 5503   9.849   2.927   5.565
  367LIG    OT1 5504   9.877   2.928   5.698
  367LIG    OT2 5505   9.858   2.819   5.482
  368LIG      N 5506   2.476   9.512   0.106
  368LIG     H1 5507   2.441   9.419   0.118
  368LIG     H2 5508   2.490   9.529   0.008
  368LIG     H3 5509   2.563   9.522   0.155
  368LIG     CA 5510   2.375   9.612   0.161
  368LIG     HA 5511   2.289   9.601   0.113
  368LIG     CB 5512   2.354   9.583   0.308
  368LIG    HB1 5513   2.442   9.591   0.357
  368LIG    HB2 5514   2.319   9.491   0.320
  368LIG     CG 5515   2.256   9.681   0.366
  368LIG    OD1 5516   2.311   9.797   0.409
  368LIG    OD2 5517   2.136   9.656   0.375
  368LIG      C 5518   2.428   9.756   0.142
  368LIG    OT1 5519   2.550   9.771   0.082
  368LIG    OT2 5520   2.349   9.858   0.187
  369LIG      N 5521   4.197   1.305   0.692
  369LIG     H1 5522   4.147   1.228   0.652
  369LIG     H2 5523   4.193   1.299   0.792
  369LIG     H3 5524   4.156   1.391   0.661
  369LIG     CA 5525   4.342   1.300   0.646
  369LIG     HA 5526   4.383   1.214   0.676
  369LIG     CB 5527   4.346   1.307   0.495
  369LIG    HB1 5528   4.303   1.392   0.464
  369LIG    HB2 5529   4.297   1.230   0.457
  369LIG     CG 5530   4.488   1.304   0.447
  369LIG    OD1 5531   4.549   1.424   0.442
  369LIG    OD2 5532   4.544   1.199   0.413
  369LIG      C 5533   4.421   1.419   0.707
  369LIG    OT1 5534   4.352   1.505   0.788
  369LIG    OT2 5535   4.553   1.428   0.675
  370LIG      N 5536   7.944   7.081   6.913
  370LIG     H1 5537   7.937   7.174   6.877
  370LIG     H2 5538   7.954   7.016   6.838
  370LIG     H3 5539   7.862   7.059   6.966
  370LIG     CA 5540   8.065   7.071   7.005
  370LIG     HA 5541   8.147   7.093   6.953
  370LIG     CB 5542   8.050   7.170   7.118
  370LIG    HB1 5543   7.965   7.150   7.169
  370LIG    HB2 5544   8.044   7.262   7.081
  370LIG     CG 5545   8.167   7.162   7.211
  370LIG    OD1 5546   8.156   7.069   7.308
  370LIG    OD2 5547   8.265   7.236   7.200
  370LIG      C 5548   8.077   6.927   7.062
  370LIG    OT1 5549   7.982   6.836   7.023
  370LIG    OT2 5550   8.181   6.902   7.146
  371LIG      N 5551   8.822   2.101   6.078
  371LIG     H1 5552   8.882   2.177   6.052
  371LIG     H2 5553   8.840   2.074   6.172
  371LIG     H3 5554   8.840   2.023   6.017
  371LIG     CA 5555   8.677   2.142   6.064
  371LIG     HA 5556   8.659   2.220   6.123
  371LIG     CB 5557   8.651   2.183   5.920
  371LIG    HB1 5558   8.672   2.106   5.859
  371LIG    HB2 5559   8.710   2.260   5.896
  371LIG     CG 5560   8.508   2.223   5.902
  371LIG    OD1 5561   8.423   2.122   5.875
  371LIG    OD2 5562   8.471   2.341   5.910
  371LIG      C 5563   8.584   2.024   6.102
  371LIG    OT1 5564   8.644   1.908   6.141
  371LIG    OT2 5565   8.449   2.046   6.095
  372LIG      N 5566   1.231   3.430   9.316
  372LIG     H1 5567   1.216   3.529   9.315
  372LIG     H2 5568   1.172   3.387   9.248
  372LIG     H3 5569   1.209   3.395   9.407
  372LIG     CA 5570   1.376   3.400   9.285
  372LIG     HA 5571   1.399   3.436   9.194
  372LIG     CB 5572   1.464   3.468   9.388
  372LIG    HB1 5573   1.440   3.434   9.479
  372LIG    HB2 5574   1.449   3.567   9.385
  372LIG     CG 5575   1.608   3.440   9.361
  372LIG    OD1 5576   1.655   3.325   9.415
  372LIG    OD2 5577   1.679   3.516   9.295
  372LIG      C 5578   1.401   3.247   9.287
  372LIG    OT1 5579   1.294   3.167   9.316
  372LIG    OT2 5580   1.527   3.204   9.261
  373LIG      N 5581   0.090   7.331   2.339
  373LIG     H1 5582   0.053   7.278   2.262
  373LIG     H2 5583   0.040   7.417   2.347
  373LIG     H3 5584   0.187   7.349   2.323
  373LIG     CA 5585   0.074   7.251   2.467
  373LIG     HA 5586  -0.023   7.232   2.482
  373LIG     CB 5587   0.148   7.120   2.452
  373LIG    HB1 5588   0.245   7.138   2.434
  373LIG    HB2 5589   0.110   7.068   2.376
  373LIG     CG 5590   0.136   7.039   2.578
  373LIG    OD1 5591   0.228   7.066   2.672
  373LIG    OD2 5592   0.049   6.953   2.592
  373LIG      C 5593   0.131   7.331   2.587
  373LIG    OT1 5594   0.183   7.454   2.560
  373LIG    OT2 5595   0.124   7.272   2.710
  374LIG      N 5596   2.227   8.572   2.600
  374LIG     H1 5597   2.204   8.507   2.528
  374LIG     H2 5598   2.245   8.523   2.685
  374LIG     H3 5599   2.152   8.636   2.613
  374LIG     CA 5600   2.352   8.650   2.560
  374LIG     HA 5601   2.428   8.586   2.547
  374LIG     CB 5602   2.325   8.723   2.431
  374LIG    HB1 5603   2.247   8.785   2.443
  374LIG    HB2 5604   2.303   8.657   2.359
  374LIG     CG 5605   2.445   8.802   2.389
  374LIG    OD1 5606   2.453   8.926   2.443
  374LIG    OD2 5607   2.530   8.758   2.311
  374LIG      C 5608   2.388   8.752   2.672
  374LIG    OT1 5609   2.308   8.755   2.782
  374LIG    OT2 5610   2.498   8.829   2.651
  375LIG      N 5611   2.911   6.776   9.681
  375LIG     H1 5612   2.824   6.738   9.711
  375LIG     H2 5613   2.911   6.875   9.694
  375LIG     H3 5614   2.926   6.754   9.585
  375LIG     CA 5615   3.023   6.715   9.764
  375LIG     HA 5616   3.008   6.736   9.860
  375LIG     CB 5617   3.022   6.565   9.745
  375LIG    HB1 5618   3.034   6.543   9.648
  375LIG    HB2 5619   2.935   6.528   9.775
  375LIG     CG 5620   3.132   6.501   9.824
  375LIG    OD1 5621   3.252   6.496   9.761
  375LIG    OD2 5622   3.115   6.457   9.937
  375LIG      C 5623   3.160   6.773   9.718
  375LIG    OT1 5624   3.159   6.864   9.617
  375LIG    OT2 5625   3.271   6.728   9.784
  376LIG      N 5626   7.260   9.718   1.106
  376LIG     H1 5627   7.243   9.817   1.104
  376LIG     H2 5628   7.237   9.679   1.017
  376LIG     H3 5629   7.204   9.676   1.177
  376LIG     CA 5630   7.407   9.693   1.136
  376LIG     HA 5631   7.463   9.736   1.066
  376LIG     CB 5632   7.440   9.755   1.270
  376LIG    HB1 5633   7.382   9.714   1.341
  376LIG    HB2 5634   7.424   9.853   1.267
  376LIG     CG 5635   7.584   9.731   1.304
  376LIG    OD1 5636   7.609   9.613   1.366
  376LIG    OD2 5637   7.673   9.812   1.278
  376LIG      C 5638   7.435   9.540   1.140
  376LIG    OT1 5639   7.329   9.457   1.116
  376LIG    OT2 5640   7.563   9.501   1.166
  377LIG      N 5641   8.025   9.925  10.037
  377LIG     H1 5642   7.962   9.854  10.005
  377LIG     H2 5643   8.025   9.927  10.137
  377LIG     H3 5644   7.996  10.014  10.002
  377LIG     CA 5645   8.165   9.895   9.987
  377LIG     HA 5646   8.194   9.805  10.021
  377LIG     CB 5647   8.163   9.891   9.836
  377LIG    HB1 5648   8.131   9.979   9.800
  377LIG    HB2 5649   8.100   9.820   9.805
  377LIG     CG 5650   8.300   9.863   9.782
  377LIG    OD1 5651   8.378   9.971   9.766
  377LIG    OD2 5652   8.338   9.749   9.754
  377LIG      C 5653   8.264  10.004  10.036
  377LIG    OT1 5654   8.213  10.105  10.112
  377LIG    OT2 5655   8.394   9.990   9.998
  378LIG      N 5656   2.379   4.171   6.356
  378LIG     H1 5657   2.292   4.208   6.322
  378LIG     H2 5658   2.440   4.153   6.279
  378LIG     H3 5659   2.361   4.086   6.406
  378LIG     CA 5660   2.444   4.271   6.450
  378LIG     HA 5661   2.460   4.357   6.400
  378LIG     CB 5662   2.350   4.299   6.565
  378LIG    HB1 5663   2.330   4.213   6.613
  378LIG    HB2 5664   2.264   4.337   6.530
  378LIG     CG 5665   2.411   4.397   6.660
  378LIG    OD1 5666   2.491   4.342   6.754
  378LIG    OD2 5667   2.390   4.518   6.653
  378LIG      C 5668   2.578   4.215   6.503
  378LIG    OT1 5669   2.615   4.090   6.460
  378LIG    OT2 5670   2.649   4.294   6.589
  379LIG      N 5671   0.775   5.209   2.556
  379LIG     H1 5672   0.872   5.233   2.559
  379LIG     H2 5673   0.730   5.264   2.485
  379LIG     H3 5674   0.733   5.228   2.645
  379LIG     CA 5675   0.760   5.062   2.523
  379LIG     HA 5676   0.802   5.043   2.435
  379LIG     CB 5677   0.830   4.981   2.630
  379LIG    HB1 5678   0.790   5.001   2.720
  379LIG    HB2 5679   0.927   5.004   2.632
  379LIG     CG 5680   0.816   4.834   2.602
  379LIG    OD1 5681   0.703   4.778   2.651
  379LIG    OD2 5682   0.901   4.770   2.540
  379LIG      C 5683   0.609   5.024   2.519
  379LIG    OT1 5684   0.519   5.124   2.543
  379LIG    OT2 5685   0.579   4.894   2.490
  380LIG      N 5686   6.848   9.781   9.346
  380LIG     H1 5687   6.763   9.749   9.387
  380LIG     H2 5688   6.916   9.708   9.347
  380LIG     H3 5689   6.882   9.860   9.398
  380LIG     CA 5690   6.822   9.824   9.202
  380LIG     HA 5691   6.787   9.746   9.151
  380LIG     CB 5692   6.718   9.934   9.202
  380LIG    HB1 5693   6.752  10.011   9.256
  380LIG    HB2 5694   6.634   9.900   9.242
  380LIG     CG 5695   6.691   9.979   9.062
  380LIG    OD1 5696   6.775  10.075   9.016
  380LIG    OD2 5697   6.599   9.934   8.995
  380LIG      C 5698   6.953   9.875   9.137
  380LIG    OT1 5699   7.066   9.873   9.215
  380LIG    OT2 5700   6.946   9.917   9.008
  381LIG      N 5701   4.834   1.514   6.043
  381LIG     H1 5702   4.921   1.525   6.091
  381LIG     H2 5703   4.760   1.553   6.098
  381LIG     H3 5704   4.817   1.417   6.026
  381LIG     CA 5705   4.840   1.587   5.910
  381LIG     HA 5706   4.858   1.684   5.925
  381LIG     CB 5707   4.953   1.529   5.827
  381LIG    HB1 5708   4.938   1.431   5.813
  381LIG    HB2 5709   5.040   1.541   5.876
  381LIG     CG 5710   4.962   1.597   5.694
  381LIG    OD1 5711   4.882   1.545   5.599
  381LIG    OD2 5712   5.036   1.693   5.674
  381LIG      C 5713   4.706   1.570   5.834
  381LIG    OT1 5714   4.608   1.497   5.895
  381LIG    OT2 5715   4.696   1.630   5.712
  382LIG      N 5716   0.382   6.774   0.376
  382LIG     H1 5717   0.316   6.760   0.303
  382LIG     H2 5718   0.441   6.852   0.353
  382LIG     H3 5719   0.439   6.692   0.387
  382LIG     CA 5720   0.309   6.802   0.506
  382LIG     HA 5721   0.252   6.883   0.496
  382LIG     CB 5722   0.220   6.684   0.539
  382LIG    HB1 5723   0.276   6.601   0.547
  382LIG    HB2 5724   0.154   6.671   0.465
  382LIG     CG 5725   0.147   6.707   0.667
  382LIG    OD1 5726   0.215   6.671   0.778
  382LIG    OD2 5727   0.034   6.755   0.671
  382LIG      C 5728   0.411   6.824   0.621
  382LIG    OT1 5729   0.544   6.816   0.589
  382LIG    OT2 5730   0.361   6.850   0.745
  383LIG      N 5731   9.743   5.541   7.708
  383LIG     H1 5732   9.823   5.590   7.672
  383LIG     H2 5733   9.740   5.551   7.807
  383LIG     H3 5734   9.750   5.444   7.683
  383LIG     CA 5735   9.617   5.599   7.648
  383LIG     HA 5736   9.610   5.696   7.671
  383LIG     CB 5737   9.623   5.585   7.497
  383LIG    HB1 5738   9.632   5.488   7.473
  383LIG    HB2 5739   9.702   5.635   7.462
  383LIG     CG 5740   9.499   5.640   7.434
  383LIG    OD1 5741   9.396   5.553   7.425
  383LIG    OD2 5742   9.492   5.756   7.393
  383LIG      C 5743   9.492   5.524   7.702
  383LIG    OT1 5744   9.515   5.423   7.791
  383LIG    OT2 5745   9.370   5.565   7.657
  384LIG      N 5746   9.839   6.902   8.782
  384LIG     H1 5747   9.889   6.933   8.864
  384LIG     H2 5748   9.847   6.972   8.710
  384LIG     H3 5749   9.743   6.888   8.805
  384LIG     CA 5750   9.899   6.771   8.733
  384LIG     HA 5751   9.995   6.785   8.711
  384LIG     CB 5752   9.888   6.669   8.844
  384LIG    HB1 5753   9.791   6.656   8.869
  384LIG    HB2 5754   9.938   6.700   8.924
  384LIG     CG 5755   9.944   6.537   8.799
  384LIG    OD1 5756   9.857   6.458   8.733
  384LIG    OD2 5757  10.061   6.505   8.821
  384LIG      C 5758   9.822   6.722   8.608
  384LIG    OT1 5759   9.719   6.800   8.563
  384LIG    OT2 5760   9.864   6.605   8.551
  385LIG      N 5761   0.602   2.862   6.984
  385LIG     H1 5762   0.682   2.876   6.925
  385LIG     H2 5763   0.629   2.870   7.080
  385LIG     H3 5764   0.564   2.771   6.967
  385LIG     CA 5765   0.497   2.968   6.951
  385LIG     HA 5766   0.535   3.058   6.967
  385LIG     CB 5767   0.459   2.955   6.806
  385LIG    HB1 5768   0.423   2.863   6.788
  385LIG    HB2 5769   0.539   2.970   6.748
  385LIG     CG 5770   0.354   3.056   6.770
  385LIG    OD1 5771   0.227   3.018   6.794
  385LIG    OD2 5772   0.383   3.166   6.722
  385LIG      C 5773   0.372   2.947   7.041
  385LIG    OT1 5774   0.375   2.843   7.130
  385LIG    OT2 5775   0.269   3.034   7.024
  386LIG      N 5776   6.933   3.577   9.909
  386LIG     H1 5777   6.938   3.588  10.009
  386LIG     H2 5778   7.004   3.632   9.866
  386LIG     H3 5779   6.843   3.607   9.877
  386LIG     CA 5780   6.953   3.431   9.873
  386LIG     HA 5781   7.042   3.400   9.906
  386LIG     CB 5782   6.846   3.348   9.941
  386LIG    HB1 5783   6.755   3.380   9.911
  386LIG    HB2 5784   6.852   3.359  10.040
  386LIG     CG 5785   6.861   3.203   9.907
  386LIG    OD1 5786   6.800   3.166   9.792
  386LIG    OD2 5787   6.924   3.125   9.978
  386LIG      C 5788   6.945   3.412   9.719
  386LIG    OT1 5789   6.922   3.524   9.644
  386LIG    OT2 5790   6.961   3.286   9.671
  387LIG      N 5791   4.749   1.412   9.453
  387LIG     H1 5792   4.699   1.467   9.386
  387LIG     H2 5793   4.825   1.466   9.491
  387LIG     H3 5794   4.784   1.330   9.409
  387LIG     CA 5795   4.655   1.373   9.566
  387LIG     HA 5796   4.619   1.455   9.609
  387LIG     CB 5797   4.540   1.294   9.507
  387LIG    HB1 5798   4.575   1.212   9.461
  387LIG    HB2 5799   4.490   1.349   9.441
  387LIG     CG 5800   4.445   1.251   9.616
  387LIG    OD1 5801   4.478   1.135   9.677
  387LIG    OD2 5802   4.345   1.317   9.645
  387LIG      C 5803   4.730   1.287   9.670
  387LIG    OT1 5804   4.863   1.262   9.647
  387LIG    OT2 5805   4.659   1.243   9.778
  388LIG      N 5806   1.978   5.599   4.271
  388LIG     H1 5807   1.928   5.639   4.348
  388LIG     H2 5808   2.041   5.667   4.233
  388LIG     H3 5809   1.913   5.569   4.201
  388LIG     CA 5810   2.057   5.479   4.320
  388LIG     HA 5811   2.121   5.508   4.391
  388LIG     CB 5812   1.961   5.378   4.379
  388LIG    HB1 5813   1.895   5.350   4.309
  388LIG    HB2 5814   1.912   5.418   4.455
  388LIG     CG 5815   2.036   5.257   4.427
  388LIG    OD1 5816   2.058   5.163   4.333
  388LIG    OD2 5817   2.073   5.244   4.544
  388LIG      C 5818   2.135   5.415   4.202
  388LIG    OT1 5819   2.122   5.474   4.079
  388LIG    OT2 5820   2.212   5.306   4.230
  389LIG      N 5821   5.328   1.465   9.562
  389LIG     H1 5822   5.233   1.497   9.552
  389LIG     H2 5823   5.345   1.439   9.657
  389LIG     H3 5824   5.391   1.538   9.535
  389LIG     CA 5825   5.351   1.344   9.472
  389LIG     HA 5826   5.288   1.271   9.498
  389LIG     CB 5827   5.323   1.384   9.329
  389LIG    HB1 5828   5.385   1.459   9.303
  389LIG    HB2 5829   5.229   1.414   9.320
  389LIG     CG 5830   5.346   1.268   9.237
  389LIG    OD1 5831   5.474   1.253   9.196
  389LIG    OD2 5832   5.256   1.193   9.202
  389LIG      C 5833   5.497   1.295   9.487
  389LIG    OT1 5834   5.578   1.363   9.573
  389LIG    OT2 5835   5.533   1.186   9.412
  390LIG      N 5836   6.946   3.571   0.773
  390LIG     H1 5837   6.984   3.481   0.797
  390LIG     H2 5838   7.021   3.635   0.756
  390LIG     H3 5839   6.889   3.604   0.848
  390LIG     CA 5840   6.861   3.557   0.648
  390LIG     HA 5841   6.918   3.524   0.573
  390LIG     CB 5842   6.750   3.458   0.674
  390LIG    HB1 5843   6.694   3.490   0.751
  390LIG    HB2 5844   6.789   3.370   0.697
  390LIG     CG 5845   6.663   3.444   0.553
  390LIG    OD1 5846   6.563   3.534   0.543
  390LIG    OD2 5847   6.681   3.355   0.469
  390LIG      C 5848   6.801   3.695   0.609
  390LIG    OT1 5849   6.832   3.802   0.690
  390LIG    OT2 5850   6.722   3.700   0.499
  391LIG      N 5851   3.383   1.932   6.041
  391LIG     H1 5852   3.336   1.896   5.960
  391LIG     H2 5853   3.475   1.962   6.016
  391LIG     H3 5854   3.389   1.860   6.110
  391LIG     CA 5855   3.305   2.049   6.097
  391LIG     HA 5856   3.298   2.121   6.028
  391LIG     CB 5857   3.165   2.002   6.133
  391LIG    HB1 5858   3.171   1.928   6.201
  391LIG    HB2 5859   3.119   1.968   6.052
  391LIG     CG 5860   3.085   2.115   6.191
  391LIG    OD1 5861   3.100   2.133   6.324
  391LIG    OD2 5862   3.011   2.185   6.122
  391LIG      C 5863   3.376   2.105   6.223
  391LIG    OT1 5864   3.492   2.043   6.262
  391LIG    OT2 5865   3.318   2.211   6.286
  392LIG      N 5866   0.563   4.548   5.304
  392LIG     H1 5867   0.648   4.592   5.272
  392LIG     H2 5868   0.560   4.552   5.404
  392LIG     H3 5869   0.562   4.453   5.273
  392LIG     CA 5870   0.443   4.622   5.246
  392LIG     HA 5871   0.445   4.717   5.276
  392LIG     CB 5872   0.451   4.618   5.096
  392LIG    HB1 5873   0.452   4.522   5.065
  392LIG    HB2 5874   0.535   4.662   5.065
  392LIG     CG 5875   0.333   4.688   5.035
  392LIG    OD1 5876   0.224   4.611   5.019
  392LIG    OD2 5877   0.337   4.806   5.002
  392LIG      C 5878   0.312   4.554   5.294
  392LIG    OT1 5879   0.324   4.445   5.377
  392LIG    OT2 5880   0.195   4.609   5.251
  393LIG      N 5881   7.896   4.917   3.623
  393LIG     H1 5882   7.826   4.952   3.686
  393LIG     H2 5883   7.866   4.931   3.529
  393LIG     H3 5884   7.910   4.819   3.640
  393LIG     CA 5885   8.027   4.991   3.647
  393LIG     HA 5886   8.013   5.088   3.631
  393LIG     CB 5887   8.069   4.970   3.791
  393LIG    HB1 5888   8.081   4.872   3.808
  393LIG    HB2 5889   8.000   5.006   3.852
  393LIG     CG 5890   8.199   5.040   3.817
  393LIG    OD1 5891   8.310   4.969   3.787
  393LIG    OD2 5892   8.204   5.154   3.864
  393LIG      C 5893   8.136   4.937   3.551
  393LIG    OT1 5894   8.100   4.837   3.465
  393LIG    OT2 5895   8.260   4.994   3.560
  394LIG      N 5896   9.542   6.563   6.336
  394LIG     H1 5897   9.602   6.483   6.326
  394LIG     H2 5898   9.530   6.608   6.247
  394LIG     H3 5899   9.583   6.627   6.401
  394LIG     CA 5900   9.407   6.518   6.388
  394LIG     HA 5901   9.366   6.453   6.324
  394LIG     CB 5902   9.426   6.449   6.522
  394LIG    HB1 5903   9.469   6.512   6.586
  394LIG    HB2 5904   9.485   6.369   6.510
  394LIG     CG 5905   9.294   6.404   6.577
  394LIG    OD1 5906   9.229   6.498   6.649
  394LIG    OD2 5907   9.250   6.291   6.559
  394LIG      C 5908   9.313   6.640   6.405
  394LIG    OT1 5909   9.364   6.763   6.372
  394LIG    OT2 5910   9.187   6.616   6.452
  395LIG      N 5911   2.451   9.865   6.880
  395LIG     H1 5912   2.448   9.774   6.923
  395LIG     H2 5913   2.486   9.931   6.946
  395LIG     H3 5914   2.360   9.891   6.850
  395LIG     CA 5915   2.544   9.861   6.760
  395LIG     HA 5916   2.635   9.833   6.789
  395LIG     CB 5917   2.491   9.759   6.661
  395LIG    HB1 5918   2.398   9.784   6.633
  395LIG    HB2 5919   2.489   9.669   6.704
  395LIG     CG 5920   2.579   9.753   6.540
  395LIG    OD1 5921   2.549   9.843   6.444
  395LIG    OD2 5922   2.671   9.672   6.529
  395LIG      C 5923   2.550  10.001   6.693
  395LIG    OT1 5924   2.475  10.100   6.749
  395LIG    OT2 5925   2.629  10.013   6.582
  396LIG      N 5926   1.533   4.265   3.132
  396LIG     H1 5927   1.475   4.186   3.156
  396LIG     H2 5928   1.549   4.267   3.034
  396LIG     H3 5929   1.621   4.257   3.180
  396LIG     CA 5930   1.464   4.393   3.175
  396LIG     HA 5931   1.376   4.401   3.128
  396LIG     CB 5932   1.439   4.388   3.324
  396LIG    HB1 5933   1.527   4.377   3.373
  396LIG    HB2 5934   1.381   4.310   3.346
  396LIG     CG 5935   1.373   4.514   3.371
  396LIG    OD1 5936   1.457   4.615   3.401
  396LIG    OD2 5937   1.250   4.523   3.382
  396LIG      C 5938   1.553   4.515   3.140
  396LIG    OT1 5939   1.673   4.490   3.080
  396LIG    OT2 5940   1.504   4.638   3.173
  397LIG      N 5941   1.770   4.499   5.798
  397LIG     H1 5942   1.851   4.500   5.857
  397LIG     H2 5943   1.795   4.466   5.707
  397LIG     H3 5944   1.732   4.591   5.791
  397LIG     CA 5945   1.665   4.406   5.857
  397LIG     HA 5946   1.703   4.314   5.865
  397LIG     CB 5947   1.628   4.456   5.995
  397LIG    HB1 5948   1.593   4.550   5.989
  397LIG    HB2 5949   1.709   4.456   6.054
  397LIG     CG 5950   1.524   4.368   6.057
  397LIG    OD1 5951   1.397   4.400   6.025
  397LIG    OD2 5952   1.552   4.274   6.131
  397LIG      C 5953   1.539   4.404   5.767
  397LIG    OT1 5954   1.542   4.481   5.654
  397LIG    OT2 5955   1.435   4.325   5.807
  398LIG      N 5956   1.014   9.198   2.020
  398LIG     H1 5957   1.040   9.191   1.924
  398LIG     H2 5958   1.084   9.156   2.077
  398LIG     H3 5959   0.926   9.152   2.034
  398LIG     CA 5960   0.999   9.345   2.058
  398LIG     HA 5961   1.086   9.392   2.043
  398LIG     CB 5962   0.893   9.408   1.970
  398LIG    HB1 5963   0.806   9.359   1.982
  398LIG    HB2 5964   0.921   9.401   1.874
  398LIG     CG 5965   0.875   9.552   2.005
  398LIG    OD1 5966   0.787   9.575   2.105
  398LIG    OD2 5967   0.934   9.643   1.946
  398LIG      C 5968   0.957   9.357   2.207
  398LIG    OT1 5969   0.942   9.241   2.277
  398LIG    OT2 5970   0.940   9.483   2.256
  399LIG      N 5971   9.211   7.863   3.122
  399LIG     H1 5972   9.228   7.778   3.072
  399LIG     H2 5973   9.223   7.846   3.220
  399LIG     H3 5974   9.118   7.895   3.103
  399LIG     CA 5975   9.310   7.969   3.076
  399LIG     HA 5976   9.403   7.937   3.094
  399LIG     CB 5977   9.293   7.991   2.928
  399LIG    HB1 5978   9.199   8.020   2.909
  399LIG    HB2 5979   9.310   7.906   2.878
  399LIG     CG 5980   9.388   8.096   2.879
  399LIG    OD1 5981   9.343   8.223   2.891
  399LIG    OD2 5982   9.498   8.069   2.832
  399LIG      C 5983   9.285   8.101   3.153
  399LIG    OT1 5984   9.183   8.102   3.245
  399LIG    OT2 5985   9.366   8.207   3.123
  400LIG      N 5986   2.408   0.240   6.140
  400LIG     H1 5987   2.416   0.146   6.172
  400LIG     H2 5988   2.435   0.245   6.043
  400LIG     H3 5989   2.467   0.299   6.194
  400LIG     CA 5990   2.264   0.287   6.154
  400LIG     HA 5991   2.204   0.228   6.100
  400LIG     CB 5992   2.224   0.279   6.299
  400LIG    HB1 5993   2.285   0.336   6.355
  400LIG    HB2 5994   2.231   0.184   6.331
  400LIG     CG 5995   2.083   0.326   6.317
  400LIG    OD1 5996   2.069   0.459   6.334
  400LIG    OD2 5997   1.987   0.248   6.318
  400LIG      C 5998   2.251   0.434   6.104
  400LIG    OT1 5999   2.365   0.494   6.057
  400LIG    OT2 6000   2.127   0.491   6.110
  401LIG      N 6001   4.385   0.216   2.390
  401LIG     H1 6002   4.418   0.189   2.299
  401LIG     H2 6003   4.354   0.134   2.439
  401LIG     H3 6004   4.309   0.280   2.381
  401LIG     CA 6005   4.498   0.282   2.467
  401LIG     HA 6006   4.574   0.219   2.476
  401LIG     CB 6007   4.544   0.404   2.390
  401LIG    HB1 6008   4.467   0.468   2.379
  401LIG    HB2 6009   4.577   0.377   2.300
  401LIG     CG 6010   4.655   0.474   2.464
  401LIG    OD1 6011   4.613   0.563   2.557
  401LIG    OD2 6012   4.773   0.451   2.441
  401LIG      C 6013   4.448   0.324   2.608
  401LIG    OT1 6014   4.318   0.296   2.639
  401LIG    OT2 6015   4.538   0.386   2.690
  402LIG      N 6016   0.138   1.678   4.280
  402LIG     H1 6017   0.117   1.676   4.182
  402LIG     H2 6018   0.233   1.651   4.294
  402LIG     H3 6019   0.077   1.614   4.327
  402LIG     CA 6020   0.115   1.818   4.334
  402LIG     HA 6021   0.174   1.882   4.286
  402LIG     CB 6022  -0.029   1.857   4.310
  402LIG    HB1 6023  -0.090   1.791   4.356
  402LIG    HB2 6024  -0.049   1.856   4.212
  402LIG     CG 6025  -0.056   1.994   4.364
  402LIG    OD1 6026  -0.090   1.998   4.495
  402LIG    OD2 6027  -0.049   2.095   4.294
  402LIG      C 6028   0.146   1.821   4.486
  402LIG    OT1 6029   0.187   1.704   4.544
  402LIG    OT2 6030   0.130   1.941   4.550
  403LIG      N 6031   8.615   7.153   5.889
  403LIG     H1 6032   8.585   7.058   5.895
  403LIG     H2 6033   8.623   7.179   5.792
  403LIG     H3 6034   8.704   7.164   5.933
  403LIG     CA 6035   8.514   7.243   5.957
  403LIG     HA 6036   8.425   7.233   5.914
  403LIG     CB 6037   8.503   7.202   6.103
  403LIG    HB1 6038   8.593   7.210   6.147
  403LIG    HB2 6039   8.472   7.108   6.109
  403LIG     CG 6040   8.405   7.290   6.174
  403LIG    OD1 6041   8.457   7.405   6.224
  403LIG    OD2 6042   8.286   7.259   6.188
  403LIG      C 6043   8.560   7.392   5.948
  403LIG    OT1 6044   8.677   7.416   5.882
  403LIG    OT2 6045   8.479   7.485   6.005
  404LIG      N 6046   8.323   3.286   4.546
  404LIG     H1 6047   8.330   3.198   4.592
  404LIG     H2 6048   8.352   3.359   4.608
  404LIG     H3 6049   8.228   3.301   4.518
  404LIG     CA 6050   8.412   3.286   4.422
  404LIG     HA 6051   8.506   3.271   4.450
  404LIG     CB 6052   8.368   3.174   4.330
  404LIG    HB1 6053   8.272   3.188   4.304
  404LIG    HB2 6054   8.377   3.087   4.377
  404LIG     CG 6055   8.453   3.172   4.207
  404LIG    OD1 6056   8.411   3.254   4.108
  404LIG    OD2 6057   8.553   3.101   4.197
  404LIG      C 6058   8.401   3.423   4.349
  404LIG    OT1 6059   8.317   3.516   4.404
  404LIG    OT2 6060   8.475   3.438   4.236
  405SOL     OW 6061   0.225   0.275   0.996
  405SOL    HW1 6062   0.260   0.258   1.088
  405SOL    HW2 6063   0.137   0.230   0.984
  406SOL     OW 6064   0.019   0.368   0.647
  406SOL    HW1 6065  -0.063   0.411   0.686
  406SOL    HW2 6066  -0.009   0.295   0.584
  407SOL     OW 6067   1.555   1.511   0.703
  407SOL    HW1 6068   1.498   1.495   0.784
  407SOL    HW2 6069   1.496   1.521   0.623
  408SOL     OW 6070   1.135   0.703   0.717
  408SOL    HW1 6071   1.192   0.781   0.692
  408SOL    HW2 6072   1.075   0.729   0.793
  409SOL     OW 6073   1.755   0.607   0.231
  409SOL    HW1 6074   1.743   0.594   0.132
  409SOL    HW2 6075   1.725   0.526   0.280
  410SOL     OW 6076   0.768   1.144   1.023
  410SOL    HW1 6077   0.690   1.161   1.083
  410SOL    HW2 6078   0.802   1.231   0.987
  411SOL     OW 6079   0.850   0.798   1.823
  411SOL    HW1 6080   0.846   0.874   1.888
  411SOL    HW2 6081   0.872   0.834   1.732
  412SOL     OW 6082   0.685   1.012   0.665
  412SOL    HW1 6083   0.754   0.996   0.735
  412SOL    HW2 6084   0.612   1.069   0.703
  413SOL     OW 6085   0.686   1.161   1.803
  413SOL    HW1 6086   0.746   1.240   1.817
  413SOL    HW2 6087   0.600   1.192   1.762
  414SOL     OW 6088   0.335   1.435   1.061
  414SOL    HW1 6089   0.257   1.404   1.008
  414SOL    HW2 6090   0.393   1.493   1.004
  415SOL     OW 6091   1.460   1.505   1.339
  415SOL    HW1 6092   1.484   1.599   1.365
  415SOL    HW2 6093   1.444   1.451   1.421
  416SOL     OW 6094   1.603   0.447   0.737
  416SOL    HW1 6095   1.529   0.493   0.687
  416SOL    HW2 6096   1.654   0.515   0.790
  417SOL     OW 6097   0.231   1.713   0.483
  417SOL    HW1 6098   0.265   1.790   0.537
  417SOL    HW2 6099   0.275   1.713   0.393
  418SOL     OW 6100   1.127   1.341   1.690
  418SOL    HW1 6101   1.174   1.341   1.778
  418SOL    HW2 6102   1.079   1.254   1.679
  419SOL     OW 6103   0.230   1.434   0.538
  419SOL    HW1 6104   0.204   1.530   0.538
  419SOL    HW2 6105   0.159   1.380   0.583
  420SOL     OW 6106   0.240   1.091   0.886
  420SOL    HW1 6107   0.254   1.007   0.938
  420SOL    HW2 6108   0.185   1.155   0.941
  421SOL     OW 6109   0.620   1.786   1.439
  421SOL    HW1 6110   0.528   1.769   1.474
  421SOL    HW2 6111   0.648   1.878   1.465
  422SOL     OW 6112   0.606   0.964   0.123
  422SOL    HW1 6113   0.613   1.048   0.069
  422SOL    HW2 6114   0.652   0.977   0.211
  423SOL     OW 6115   1.594   0.114   1.480
  423SOL    HW1 6116   1.576   0.181   1.408
  423SOL    HW2 6117   1.591   0.160   1.569
  424SOL     OW 6118   0.122   0.643   0.563
  424SOL    HW1 6119   0.077   0.555   0.580
  424SOL    HW2 6120   0.121   0.697   0.647
  425SOL     OW 6121   1.842   1.767   0.359
  425SOL    HW1 6122   1.896   1.738   0.439
  425SOL    HW2 6123   1.872   1.857   0.330
  426SOL     OW 6124   0.027   1.596   0.117
  426SOL    HW1 6125   0.008   1.500   0.138
  426SOL    HW2 6126  -0.006   1.654   0.192
  427SOL     OW 6127   1.641   1.108   0.432
  427SOL    HW1 6128   1.727   1.110   0.380
  427SOL    HW2 6129   1.655   1.155   0.520
  428SOL     OW 6130   0.613   1.365   0.726
  428SOL    HW1 6131   0.564   1.278   0.735
  428SOL    HW2 6132   0.590   1.408   0.639
  429SOL     OW 6133   1.293   1.228   1.423
  429SOL    HW1 6134   1.330   1.155   1.365
  429SOL    HW2 6135   1.345   1.233   1.508
  430SOL     OW 6136   0.809   0.004   0.502
  430SOL    HW1 6137   0.849   0.095   0.493
  430SOL    HW2 6138   0.709   0.012   0.508
  431SOL     OW 6139   0.197   0.976   1.264
  431SOL    HW1 6140   0.286   0.931   1.250
  431SOL    HW2 6141   0.124   0.911   1.245
  432SOL     OW 6142   1.525   0.999   0.190
  432SOL    HW1 6143   1.462   0.923   0.203
  432SOL    HW2 6144   1.573   1.017   0.276
  433SOL     OW 6145   1.187   1.792   1.616
  433SOL    HW1 6146   1.211   1.852   1.540
  433SOL    HW2 6147   1.194   1.697   1.586
  434SOL     OW 6148   1.466   1.417   0.953
  434SOL    HW1 6149   1.407   1.423   1.033
  434SOL    HW2 6150   1.451   1.329   0.907
  435SOL     OW 6151   1.667   1.714   0.572
  435SOL    HW1 6152   1.626   1.691   0.484
  435SOL    HW2 6153   1.649   1.640   0.637
  436SOL     OW 6154   0.598   0.729   0.270
  436SOL    HW1 6155   0.622   0.798   0.202
  436SOL    HW2 6156   0.520   0.762   0.324
  437SOL     OW 6157   1.281   0.345   0.944
  437SOL    HW1 6158   1.195   0.295   0.931
  437SOL    HW2 6159   1.343   0.291   1.000
  438SOL     OW 6160   1.576   1.662   0.307
  438SOL    HW1 6161   1.665   1.708   0.310
  438SOL    HW2 6162   1.555   1.638   0.212
  439SOL     OW 6163   0.807   0.605   1.465
  439SOL    HW1 6164   0.760   0.602   1.554
  439SOL    HW2 6165   0.756   0.550   1.399
  440SOL     OW 6166   1.394   0.469   1.674
  440SOL    HW1 6167   1.374   0.512   1.762
  440SOL    HW2 6168   1.472   0.407   1.683
  441SOL     OW 6169   0.973   0.890   1.572
  441SOL    HW1 6170   1.019   0.806   1.543
  441SOL    HW2 6171   0.917   0.924   1.497
  442SOL     OW 6172   0.991   0.410   1.242
  442SOL    HW1 6173   0.914   0.444   1.296
  442SOL    HW2 6174   0.957   0.359   1.163
  443SOL     OW 6175   1.041   0.701   0.429
  443SOL    HW1 6176   1.067   0.697   0.525
  443SOL    HW2 6177   0.956   0.650   0.415
  444SOL     OW 6178   0.076   0.811   0.789
  444SOL    HW1 6179   0.175   0.799   0.798
  444SOL    HW2 6180   0.052   0.906   0.810
  445SOL     OW 6181   0.130   1.821   1.571
  445SOL    HW1 6182   0.120   1.806   1.670
  445SOL    HW2 6183   0.044   1.857   1.535
  446SOL     OW 6184   0.865   0.348   0.195
  446SOL    HW1 6185   0.924   0.411   0.146
  446SOL    HW2 6186   0.884   0.254   0.166
  447SOL     OW 6187   1.362   1.144   0.545
  447SOL    HW1 6188   1.445   1.115   0.497
  447SOL    HW2 6189   1.313   1.211   0.489
  448SOL     OW 6190   0.550   0.196   0.885
  448SOL    HW1 6191   0.545   0.191   0.985
  448SOL    HW2 6192   0.552   0.292   0.856
  449SOL     OW 6193   1.008   1.456   0.477
  449SOL    HW1 6194   0.962   1.528   0.425
  449SOL    HW2 6195   1.004   1.476   0.575
  450SOL     OW 6196   0.351   1.801   0.853
  450SOL    HW1 6197   0.401   1.715   0.859
  450SOL    HW2 6198   0.416   1.878   0.850
  451SOL     OW 6199   1.795   1.066   0.873
  451SOL    HW1 6200   1.733   1.051   0.797
  451SOL    HW2 6201   1.743   1.077   0.958
  452SOL     OW 6202   1.227   1.550   1.506
  452SOL    HW1 6203   1.233   1.473   1.570
  452SOL    HW2 6204   1.175   1.524   1.426
  453SOL     OW 6205   0.321   0.943   0.242
  453SOL    HW1 6206   0.403   0.982   0.200
  453SOL    HW2 6207   0.294   0.861   0.193
  454SOL     OW 6208   1.458   0.735   0.728
  454SOL    HW1 6209   1.453   0.670   0.803
  454SOL    HW2 6210   1.538   0.794   0.741
  455SOL     OW 6211   0.461   1.266   1.727
  455SOL    HW1 6212   0.411   1.267   1.641
  455SOL    HW2 6213   0.398   1.248   1.803
  456SOL     OW 6214   1.111   1.776   0.237
  456SOL    HW1 6215   1.051   1.714   0.287
  456SOL    HW2 6216   1.142   1.732   0.152
  457SOL     OW 6217   1.632   1.377   0.081
  457SOL    HW1 6218   1.600   1.471   0.071
  457SOL    HW2 6219   1.556   1.314   0.069
  458SOL     OW 6220   0.464   1.743   0.323
  458SOL    HW1 6221   0.497   1.782   0.409
  458SOL    HW2 6222   0.540   1.736   0.258
  459SOL     OW 6223   1.400   0.107   0.426
  459SOL    HW1 6224   1.376   0.070   0.336
  459SOL    HW2 6225   1.499   0.123   0.430
  460SOL     OW 6226   0.249   1.785   1.241
  460SOL    HW1 6227   0.306   1.720   1.291
  460SOL    HW2 6228   0.233   1.752   1.148
  461SOL     OW 6229   0.940   1.698   0.904
  461SOL    HW1 6230   1.020   1.641   0.925
  461SOL    HW2 6231   0.891   1.658   0.827
  462SOL     OW 6232   0.382   0.700   0.480
  462SOL    HW1 6233   0.427   0.610   0.477
  462SOL    HW2 6234   0.288   0.689   0.513
  463SOL     OW 6235   1.547   0.222   1.729
  463SOL    HW1 6236   1.542   0.259   1.821
  463SOL    HW2 6237   1.475   0.153   1.717
  464SOL     OW 6238   0.614   0.122   0.117
  464SOL    HW1 6239   0.712   0.100   0.124
  464SOL    HW2 6240   0.583   0.105   0.024
  465SOL     OW 6241   0.781   0.264   1.749
  465SOL    HW1 6242   0.848   0.203   1.792
  465SOL    HW2 6243   0.708   0.283   1.814
  466SOL     OW 6244   0.888   1.514   1.195
  466SOL    HW1 6245   0.865   1.489   1.101
  466SOL    HW2 6246   0.949   1.445   1.234
  467SOL     OW 6247   1.351   0.590   1.433
  467SOL    HW1 6248   1.379   0.547   1.518
  467SOL    HW2 6249   1.376   0.686   1.434
  468SOL     OW 6250   0.803   1.402   0.924
  468SOL    HW1 6251   0.893   1.416   0.882
  468SOL    HW2 6252   0.732   1.404   0.853
  469SOL     OW 6253   0.922   0.503   0.899
  469SOL    HW1 6254   0.897   0.494   0.803
  469SOL    HW2 6255   0.970   0.421   0.930
  470SOL     OW 6256   0.539   0.064   0.512
  470SOL    HW1 6257   0.458   0.065   0.570
  470SOL    HW2 6258   0.542   0.147   0.457
  471SOL     OW 6259   1.434   1.188   0.041
  471SOL    HW1 6260   1.466   1.112   0.098
  471SOL    HW2 6261   1.342   1.215   0.071
  472SOL     OW 6262   0.297   0.035   0.171
  472SOL    HW1 6263   0.346   0.119   0.150
  472SOL    HW2 6264   0.359  -0.030   0.216
  473SOL     OW 6265   0.935   0.236   0.480
  473SOL    HW1 6266   0.887   0.277   0.402
  473SOL    HW2 6267   1.034   0.234   0.461
  474SOL     OW 6268   1.076   0.683   1.464
  474SOL    HW1 6269   0.996   0.622   1.467
  474SOL    HW2 6270   1.157   0.630   1.440
  475SOL     OW 6271   1.227   1.570   0.793
  475SOL    HW1 6272   1.248   1.644   0.728
  475SOL    HW2 6273   1.295   1.570   0.866
  476SOL     OW 6274   0.459   1.152   0.741
  476SOL    HW1 6275   0.388   1.125   0.806
  476SOL    HW2 6276   0.433   1.124   0.648
  477SOL     OW 6277   1.032   0.549   0.016
  477SOL    HW1 6278   0.991   0.631  -0.023
  477SOL    HW2 6279   1.096   0.575   0.089
  478SOL     OW 6280   0.078   0.556   1.386
  478SOL    HW1 6281   0.170   0.555   1.345
  478SOL    HW2 6282   0.072   0.630   1.453
  479SOL     OW 6283   0.561   0.222   1.147
  479SOL    HW1 6284   0.599   0.138   1.184
  479SOL    HW2 6285   0.473   0.241   1.191
  480SOL     OW 6286   0.866   0.454   0.642
  480SOL    HW1 6287   0.834   0.526   0.580
  480SOL    HW2 6288   0.890   0.373   0.589
  481SOL     OW 6289   1.017   0.039   0.753
  481SOL    HW1 6290   0.945   0.044   0.684
  481SOL    HW2 6291   0.993  -0.030   0.822
  482SOL     OW 6292   1.429   1.173   0.867
  482SOL    HW1 6293   1.374   1.089   0.860
  482SOL    HW2 6294   1.455   1.202   0.775
  483SOL     OW 6295   1.466   0.590   0.992
  483SOL    HW1 6296   1.436   0.495   0.999
  483SOL    HW2 6297   1.539   0.606   1.058
  484SOL     OW 6298   0.488   1.385   0.174
  484SOL    HW1 6299   0.401   1.370   0.221
  484SOL    HW2 6300   0.471   1.411   0.079
  485SOL     OW 6301   1.664   1.280   0.657
  485SOL    HW1 6302   1.763   1.288   0.671
  485SOL    HW2 6303   1.619   1.364   0.688
  486SOL     OW 6304   1.390   0.575   0.078
  486SOL    HW1 6305   1.336   0.554   0.159
  486SOL    HW2 6306   1.481   0.534   0.087
  487SOL     OW 6307   0.527   0.256   0.328
  487SOL    HW1 6308   0.554   0.197   0.253
  487SOL    HW2 6309   0.527   0.351   0.297
  488SOL     OW 6310   1.064   1.347   1.340
  488SOL    HW1 6311   0.984   1.324   1.395
  488SOL    HW2 6312   1.147   1.321   1.389
  489SOL     OW 6313   1.592   1.629   1.625
  489SOL    HW1 6314   1.619   1.663   1.535
  489SOL    HW2 6315   1.671   1.591   1.671
  490SOL     OW 6316   1.111   1.195   1.100
  490SOL    HW1 6317   1.071   1.239   1.181
  490SOL    HW2 6318   1.070   1.232   1.017
  491SOL     OW 6319   1.638   1.099   1.079
  491SOL    HW1 6320   1.643   1.180   1.138
  491SOL    HW2 6321   1.552   1.101   1.028
  492SOL     OW 6322   0.915   0.089   1.402
  492SOL    HW1 6323   0.940   0.069   1.307
  492SOL    HW2 6324   0.987   0.145   1.444
  493SOL     OW 6325   0.980   1.116   1.719
  493SOL    HW1 6326   0.881   1.122   1.729
  493SOL    HW2 6327   1.003   1.036   1.663
  494SOL     OW 6328   0.705   1.050   0.368
  494SOL    HW1 6329   0.691   1.057   0.467
  494SOL    HW2 6330   0.789   0.999   0.350
  495SOL     OW 6331   0.410   0.813   1.251
  495SOL    HW1 6332   0.496   0.825   1.301
  495SOL    HW2 6333   0.368   0.726   1.278
  496SOL     OW 6334   1.274   0.386   1.262
  496SOL    HW1 6335   1.295   0.460   1.326
  496SOL    HW2 6336   1.185   0.403   1.219
  497SOL     OW 6337   0.064   1.564   1.331
  497SOL    HW1 6338   0.018   1.646   1.297
  497SOL    HW2 6339   0.162   1.583   1.340
  498SOL     OW 6340   0.367   1.100   0.501
  498SOL    HW1 6341   0.360   1.183   0.445
  498SOL    HW2 6342   0.371   1.020   0.441
  499SOL     OW 6343   0.566   0.537   0.865
  499SOL    HW1 6344   0.578   0.603   0.791
  499SOL    HW2 6345   0.612   0.571   0.948
  500SOL     OW 6346   1.252   1.348   0.388
  500SOL    HW1 6347   1.302   1.425   0.428
  500SOL    HW2 6348   1.157   1.350   0.420
  501SOL     OW 6349   1.272   1.445   1.142
  501SOL    HW1 6350   1.319   1.458   1.229
  501SOL    HW2 6351   1.206   1.371   1.151
  502SOL     OW 6352   1.582   0.639   0.472
  502SOL    HW1 6353   1.551   0.700   0.545
  502SOL    HW2 6354   1.632   0.691   0.403
  503SOL     OW 6355   0.354   1.510   1.329
  503SOL    HW1 6356   0.333   1.466   1.242
  503SOL    HW2 6357   0.451   1.536   1.332
  504SOL     OW 6358   1.013   0.105   1.770
  504SOL    HW1 6359   1.019   0.190   1.718
  504SOL    HW2 6360   1.045   0.029   1.713
  505SOL     OW 6361   0.504   0.050   1.740
  505SOL    HW1 6362   0.462  -0.007   1.670
  505SOL    HW2 6363   0.438   0.119   1.772
  506SOL     OW 6364   0.573   0.870   1.029
  506SOL    HW1 6365   0.617   0.959   1.020
  506SOL    HW2 6366   0.510   0.870   1.106
  507SOL     OW 6367   1.360   0.862   1.045
  507SOL    HW1 6368   1.285   0.862   0.979
  507SOL    HW2 6369   1.397   0.770   1.054
  508SOL     OW 6370   1.209   0.525   0.275
  508SOL    HW1 6371   1.222   0.441   0.329
  508SOL    HW2 6372   1.180   0.599   0.335
  509SOL     OW 6373   0.037   1.310   1.282
  509SOL    HW1 6374   0.090   1.261   1.350
  509SOL    HW2 6375   0.059   1.408   1.287
  510SOL     OW 6376   0.732   0.634   1.064
  510SOL    HW1 6377   0.791   0.608   0.988
  510SOL    HW2 6378   0.704   0.730   1.053
  511SOL     OW 6379   0.307   0.063   0.618
  511SOL    HW1 6380   0.296   0.157   0.651
  511SOL    HW2 6381   0.302   0.000   0.695
  512SOL     OW 6382   1.622   0.367   0.374
  512SOL    HW1 6383   1.624   0.291   0.438
  512SOL    HW2 6384   1.574   0.444   0.414
  513SOL     OW 6385   1.023   0.766   0.966
  513SOL    HW1 6386   1.038   0.787   1.062
  513SOL    HW2 6387   0.993   0.671   0.957
  514SOL     OW 6388   0.980   1.573   1.700
  514SOL    HW1 6389   0.960   1.617   1.612
  514SOL    HW2 6390   1.019   1.482   1.684
  515SOL     OW 6391   1.859   1.518   1.605
  515SOL    HW1 6392   1.873   1.545   1.510
  515SOL    HW2 6393   1.942   1.540   1.658
  516SOL     OW 6394   1.540   0.274   0.125
  516SOL    HW1 6395   1.479   0.199   0.148
  516SOL    HW2 6396   1.562   0.326   0.208
  517SOL     OW 6397   1.303   0.838   0.042
  517SOL    HW1 6398   1.337   0.745   0.057
  517SOL    HW2 6399   1.321   0.865  -0.053
  518SOL     OW 6400   1.068   1.333   0.849
  518SOL    HW1 6401   1.075   1.249   0.794
  518SOL    HW2 6402   1.130   1.402   0.813
  519SOL     OW 6403   0.319   0.810   0.949
  519SOL    HW1 6404   0.412   0.846   0.954
  519SOL    HW2 6405   0.313   0.725   1.001
  520SOL     OW 6406   0.339   0.509   1.006
  520SOL    HW1 6407   0.287   0.426   0.989
  520SOL    HW2 6408   0.416   0.514   0.942
  521SOL     OW 6409   1.138   0.380   1.678
  521SOL    HW1 6410   1.093   0.443   1.742
  521SOL    HW2 6411   1.231   0.411   1.661
  522SOL     OW 6412   1.160   0.207   1.477
  522SOL    HW1 6413   1.160   0.271   1.554
  522SOL    HW2 6414   1.188   0.255   1.394
  523SOL     OW 6415   0.008   1.326   0.200
  523SOL    HW1 6416  -0.085   1.347   0.169
  523SOL    HW2 6417   0.018   1.227   0.213
  524SOL     OW 6418   0.088   1.801   0.927
  524SOL    HW1 6419   0.046   1.715   0.900
  524SOL    HW2 6420   0.182   1.804   0.893
  525SOL     OW 6421   0.504   1.568   0.910
  525SOL    HW1 6422   0.570   1.642   0.919
  525SOL    HW2 6423   0.548   1.489   0.868
  526SOL     OW 6424   1.002   0.796   1.238
  526SOL    HW1 6425   1.043   0.764   1.324
  526SOL    HW2 6426   0.906   0.769   1.235
  527SOL     OW 6427   0.040   0.544   1.114
  527SOL    HW1 6428   0.125   0.511   1.073
  527SOL    HW2 6429   0.053   0.559   1.212
  528SOL     OW 6430   1.369   0.950   1.660
  528SOL    HW1 6431   1.408   1.039   1.680
  528SOL    HW2 6432   1.379   0.930   1.563
  529SOL     OW 6433   0.815   0.572   0.325
  529SOL    HW1 6434   0.822   0.483   0.279
  529SOL    HW2 6435   0.721   0.606   0.317
  530SOL     OW 6436   1.657   0.604   1.206
  530SOL    HW1 6437   1.619   0.535   1.268
  530SOL    HW2 6438   1.739   0.568   1.162
  531SOL     OW 6439   0.252   1.564   1.744
  531SOL    HW1 6440   0.222   1.621   1.820
  531SOL    HW2 6441   0.245   1.467   1.770
  532SOL     OW 6442   0.671   0.464   1.269
  532SOL    HW1 6443   0.637   0.375   1.239
  532SOL    HW2 6444   0.697   0.518   1.189
  533SOL     OW 6445   0.930   1.678   1.465
  533SOL    HW1 6446   0.906   1.660   1.370
  533SOL    HW2 6447   0.960   1.772   1.475
  534SOL     OW 6448   0.159   1.137   1.466
  534SOL    HW1 6449   0.181   1.076   1.542
  534SOL    HW2 6450   0.169   1.088   1.380
  535SOL     OW 6451   1.347   1.059   1.234
  535SOL    HW1 6452   1.371   0.996   1.160
  535SOL    HW2 6453   1.257   1.099   1.216
  536SOL     OW 6454   1.302   0.855   0.309
  536SOL    HW1 6455   1.216   0.824   0.351
  536SOL    HW2 6456   1.298   0.841   0.210
  537SOL     OW 6457   1.759   1.747   1.154
  537SOL    HW1 6458   1.820   1.777   1.081
  537SOL    HW2 6459   1.721   1.658   1.132
  538SOL     OW 6460   1.252   1.731   1.128
  538SOL    HW1 6461   1.336   1.736   1.074
  538SOL    HW2 6462   1.229   1.635   1.146
  539SOL     OW 6463   0.083   1.258   1.022
  539SOL    HW1 6464   0.078   1.257   1.122
  539SOL    HW2 6465   0.000   1.217   0.984
  540SOL     OW 6466   0.688   1.662   1.716
  540SOL    HW1 6467   0.632   1.743   1.725
  540SOL    HW2 6468   0.740   1.666   1.630
  541SOL     OW 6469   0.903   0.086   0.133
  541SOL    HW1 6470   0.954   0.087   0.047
  541SOL    HW2 6471   0.959   0.044   0.204
  542SOL     OW 6472   1.726   0.135   0.523
  542SOL    HW1 6473   1.799   0.118   0.456
  542SOL    HW2 6474   1.695   0.048   0.561
  543SOL     OW 6475   1.388   1.573   0.477
  543SOL    HW1 6476   1.455   1.585   0.403
  543SOL    HW2 6477   1.348   1.662   0.500
  544SOL     OW 6478   0.130   1.794   1.851
  544SOL    HW1 6479   0.089   1.720   1.904
  544SOL    HW2 6480   0.194   1.845   1.909
  545SOL     OW 6481   1.280   0.927   0.672
  545SOL    HW1 6482   1.340   0.846   0.674
  545SOL    HW2 6483   1.320   0.996   0.612
  546SOL     OW 6484   0.830   1.273   1.422
  546SOL    HW1 6485   0.825   1.306   1.517
  546SOL    HW2 6486   0.744   1.292   1.376
  547SOL     OW 6487   0.672   1.616   0.154
  547SOL    HW1 6488   0.681   1.626   0.055
  547SOL    HW2 6489   0.632   1.527   0.175
  548SOL     OW 6490   1.650   1.720   1.394
  548SOL    HW1 6491   1.703   1.730   1.310
  548SOL    HW2 6492   1.623   1.810   1.428
  549SOL     OW 6493   1.841   0.175   0.963
  549SOL    HW1 6494   1.880   0.090   0.927
  549SOL    HW2 6495   1.743   0.177   0.944
  550SOL     OW 6496   0.263   0.326   0.720
  550SOL    HW1 6497   0.184   0.377   0.686
  550SOL    HW2 6498   0.254   0.311   0.818
  551SOL     OW 6499   1.194   1.612   0.031
  551SOL    HW1 6500   1.200   1.519   0.068
  551SOL    HW2 6501   1.135   1.612  -0.049
  552SOL     OW 6502   0.822   1.002   1.372
  552SOL    HW1 6503   0.862   1.001   1.280
  552SOL    HW2 6504   0.832   1.094   1.412
  553SOL     OW 6505   0.916   0.910   0.291
  553SOL    HW1 6506   0.979   0.948   0.223
  553SOL    HW2 6507   0.956   0.827   0.330
  554SOL     OW 6508   1.504   1.607   0.044
  554SOL    HW1 6509   1.412   1.644   0.051
  554SOL    HW2 6510   1.542   1.627  -0.046
  555SOL     OW 6511   0.372   1.288   1.490
  555SOL    HW1 6512   0.359   1.381   1.456
  555SOL    HW2 6513   0.288   1.236   1.477
  556SOL     OW 6514   1.614   1.292   1.289
  556SOL    HW1 6515   1.674   1.295   1.369
  556SOL    HW2 6516   1.539   1.356   1.302
  557SOL     OW 6517   1.039   1.098   0.696
  557SOL    HW1 6518   0.969   1.051   0.750
  557SOL    HW2 6519   1.098   1.030   0.653
  558SOL     OW 6520   1.014   0.236   0.971
  558SOL    HW1 6521   1.006   0.200   0.878
  558SOL    HW2 6522   1.012   0.160   1.036
  559SOL     OW 6523   0.590   1.487   0.491
  559SOL    HW1 6524   0.632   1.429   0.421
  559SOL    HW2 6525   0.546   1.566   0.447
  560SOL     OW 6526   1.709   0.385   1.381
  560SOL    HW1 6527   1.782   0.454   1.385
  560SOL    HW2 6528   1.737   0.310   1.322
  561SOL     OW 6529   0.255   1.348   0.290
  561SOL    HW1 6530   0.159   1.349   0.263
  561SOL    HW2 6531   0.267   1.401   0.374
  562SOL     OW 6532   0.105   1.013   1.726
  562SOL    HW1 6533   0.028   0.980   1.780
  562SOL    HW2 6534   0.190   0.983   1.768
  563SOL     OW 6535   0.672   0.203   1.489
  563SOL    HW1 6536   0.762   0.187   1.449
  563SOL    HW2 6537   0.680   0.208   1.588
  564SOL     OW 6538   1.440   0.856   1.398
  564SOL    HW1 6539   1.383   0.908   1.335
  564SOL    HW2 6540   1.536   0.868   1.374
  565SOL     OW 6541   0.072   0.166   0.318
  565SOL    HW1 6542   0.055   0.249   0.264
  565SOL    HW2 6543   0.162   0.129   0.296
  566SOL     OW 6544   1.183   1.335   0.119
  566SOL    HW1 6545   1.084   1.324   0.121
  566SOL    HW2 6546   1.217   1.350   0.212
  567SOL     OW 6547   0.613   0.842   1.431
  567SOL    HW1 6548   0.669   0.923   1.414
  567SOL    HW2 6549   0.672   0.762   1.434
  568SOL     OW 6550   1.493   1.767   0.959
  568SOL    HW1 6551   1.526   1.831   0.890
  568SOL    HW2 6552   1.559   1.761   1.034
  569SOL     OW 6553   0.716   0.565   1.708
  569SOL    HW1 6554   0.735   0.630   1.782
  569SOL    HW2 6555   0.776   0.485   1.717
  570SOL     OW 6556   0.390   1.741   1.560
  570SOL    HW1 6557   0.299   1.782   1.558
  570SOL    HW2 6558   0.383   1.647   1.592
  571SOL     OW 6559   1.674   0.883   1.254
  571SOL    HW1 6560   1.647   0.794   1.217
  571SOL    HW2 6561   1.675   0.951   1.181
  572SOL     OW 6562   1.225   0.325   0.449
  572SOL    HW1 6563   1.290   0.251   0.438
  572SOL    HW2 6564   1.245   0.375   0.533
  573SOL     OW 6565   0.594   0.745   0.652
  573SOL    HW1 6566   0.644   0.830   0.633
  573SOL    HW2 6567   0.506   0.747   0.604
  574SOL     OW 6568   1.777   0.342   1.642
  574SOL    HW1 6569   1.760   0.373   1.548
  574SOL    HW2 6570   1.693   0.305   1.680
  575SOL     OW 6571   0.859   1.374   0.016
  575SOL    HW1 6572   0.813   1.389   0.104
  575SOL    HW2 6573   0.903   1.459  -0.014
  576SOL     OW 6574   0.661   1.790   0.953
  576SOL    HW1 6575   0.615   1.878   0.940
  576SOL    HW2 6576   0.760   1.802   0.946
  577SOL     OW 6577   0.859   0.956   0.861
  577SOL    HW1 6578   0.913   0.887   0.909
  577SOL    HW2 6579   0.827   1.025   0.927
  578SOL     OW 6580   1.083   0.984   0.087
  578SOL    HW1 6581   1.060   1.037   0.005
  578SOL    HW2 6582   1.164   0.928   0.068
  579SOL     OW 6583   1.861   1.569   0.851
  579SOL    HW1 6584   1.790   1.557   0.781
  579SOL    HW2 6585   1.862   1.490   0.911
  580SOL     OW 6586   0.221   1.314   1.844
  580SOL    HW1 6587   0.156   1.241   1.823
  580SOL    HW2 6588   0.225   1.328   1.942
  581SOL     OW 6589   0.079   1.240   0.653
  581SOL    HW1 6590   0.078   1.193   0.741
  581SOL    HW2 6591   0.161   1.212   0.602
  582SOL     OW 6592   0.672   1.391   1.624
  582SOL    HW1 6593   0.594   1.341   1.662
  582SOL    HW2 6594   0.669   1.486   1.655
  583SOL     OW 6595   1.824   0.192   1.227
  583SOL    HW1 6596   1.820   0.102   1.271
  583SOL    HW2 6597   1.827   0.181   1.128
  584SOL     OW 6598   0.428   0.424   0.520
  584SOL    HW1 6599   0.458   0.352   0.458
  584SOL    HW2 6600   0.389   0.384   0.603
  585SOL     OW 6601   1.705   1.487   1.104
  585SOL    HW1 6602   1.612   1.462   1.077
  585SOL    HW2 6603   1.731   1.437   1.186
  586SOL     OW 6604   0.317   0.547   1.280
  586SOL    HW1 6605   0.355   0.488   1.352
  586SOL    HW2 6606   0.357   0.521   1.192
  587SOL     OW 6607   0.812   1.586   0.687
  587SOL    HW1 6608   0.844   1.596   0.593
  587SOL    HW2 6609   0.733   1.524   0.689
  588SOL     OW 6610   1.424   0.214   1.112
  588SOL    HW1 6611   1.476   0.149   1.167
  588SOL    HW2 6612   1.375   0.277   1.173
  589SOL     OW 6613   1.001   0.034   1.154
  589SOL    HW1 6614   0.938  -0.038   1.123
  589SOL    HW2 6615   1.094  -0.002   1.154
  590SOL     OW 6616   0.770   1.330   0.301
  590SOL    HW1 6617   0.724   1.243   0.318
  590SOL    HW2 6618   0.861   1.327   0.342
  591SOL     OW 6619   0.618   1.567   1.284
  591SOL    HW1 6620   0.613   1.649   1.341
  591SOL    HW2 6621   0.707   1.564   1.239
  592SOL     OW 6622   1.352   0.052   0.168
  592SOL    HW1 6623   1.387   0.011   0.084
  592SOL    HW2 6624   1.262   0.014   0.188
  593SOL     OW 6625   1.300   0.453   0.691
  593SOL    HW1 6626   1.241   0.533   0.695
  593SOL    HW2 6627   1.315   0.418   0.784
  594SOL     OW 6628   1.593   0.221   0.882
  594SOL    HW1 6629   1.509   0.220   0.936
  594SOL    HW2 6630   1.595   0.304   0.826
  595SOL     OW 6631   0.039   1.077   0.300
  595SOL    HW1 6632   0.138   1.066   0.291
  595SOL    HW2 6633  -0.001   0.991   0.332
  596SOL     OW 6634   0.875   1.646   0.337
  596SOL    HW1 6635   0.798   1.611   0.283
  596SOL    HW2 6636   0.843   1.717   0.399
  597SOL     OW 6637   0.225   0.275   2.858
  597SOL    HW1 6638   0.260   0.258   2.950
  597SOL    HW2 6639   0.137   0.230   2.846
  598SOL     OW 6640   0.019   0.368   2.509
  598SOL    HW1 6641  -0.063   0.411   2.548
  598SOL    HW2 6642  -0.009   0.295   2.446
  599SOL     OW 6643   0.569   1.275   3.027
  599SOL    HW1 6644   0.476   1.268   2.990
  599SOL    HW2 6645   0.580   1.364   3.071
  600SOL     OW 6646   1.555   1.511   2.565
  600SOL    HW1 6647   1.498   1.495   2.646
  600SOL    HW2 6648   1.496   1.521   2.485
  601SOL     OW 6649   1.135   0.703   2.579
  601SOL    HW1 6650   1.192   0.781   2.554
  601SOL    HW2 6651   1.075   0.729   2.655
  602SOL     OW 6652   0.768   1.144   2.885
  602SOL    HW1 6653   0.690   1.161   2.945
  602SOL    HW2 6654   0.802   1.231   2.849
  603SOL     OW 6655   0.850   0.798   3.685
  603SOL    HW1 6656   0.846   0.874   3.750
  603SOL    HW2 6657   0.872   0.834   3.594
  604SOL     OW 6658   0.685   1.012   2.527
  604SOL    HW1 6659   0.754   0.996   2.597
  604SOL    HW2 6660   0.612   1.069   2.565
  605SOL     OW 6661   0.686   1.161   3.665
  605SOL    HW1 6662   0.746   1.240   3.679
  605SOL    HW2 6663   0.600   1.192   3.624
  606SOL     OW 6664   0.335   1.435   2.923
  606SOL    HW1 6665   0.257   1.404   2.870
  606SOL    HW2 6666   0.393   1.493   2.866
  607SOL     OW 6667   1.460   1.505   3.201
  607SOL    HW1 6668   1.484   1.599   3.227
  607SOL    HW2 6669   1.444   1.451   3.283
  608SOL     OW 6670   1.603   0.447   2.599
  608SOL    HW1 6671   1.529   0.493   2.549
  608SOL    HW2 6672   1.654   0.515   2.652
  609SOL     OW 6673   0.231   1.713   2.345
  609SOL    HW1 6674   0.265   1.790   2.399
  609SOL    HW2 6675   0.275   1.713   2.255
  610SOL     OW 6676   1.127   1.341   3.552
  610SOL    HW1 6677   1.174   1.341   3.640
  610SOL    HW2 6678   1.079   1.254   3.541
  611SOL     OW 6679   0.230   1.434   2.400
  611SOL    HW1 6680   0.204   1.530   2.400
  611SOL    HW2 6681   0.159   1.380   2.445
  612SOL     OW 6682   0.240   1.091   2.748
  612SOL    HW1 6683   0.254   1.007   2.800
  612SOL    HW2 6684   0.185   1.155   2.803
  613SOL     OW 6685   0.620   1.786   3.301
  613SOL    HW1 6686   0.528   1.769   3.336
  613SOL    HW2 6687   0.648   1.878   3.327
  614SOL     OW 6688   0.606   0.964   1.985
  614SOL    HW1 6689   0.613   1.048   1.931
  614SOL    HW2 6690   0.652   0.977   2.073
  615SOL     OW 6691   1.594   0.114   3.342
  615SOL    HW1 6692   1.576   0.181   3.270
  615SOL    HW2 6693   1.591   0.160   3.431
  616SOL     OW 6694   0.122   0.643   2.425
  616SOL    HW1 6695   0.077   0.555   2.442
  616SOL    HW2 6696   0.121   0.697   2.509
  617SOL     OW 6697   1.842   1.767   2.221
  617SOL    HW1 6698   1.896   1.738   2.301
  617SOL    HW2 6699   1.872   1.857   2.192
  618SOL     OW 6700   0.027   1.596   1.979
  618SOL    HW1 6701   0.008   1.500   2.000
  618SOL    HW2 6702  -0.006   1.654   2.054
  619SOL     OW 6703   1.689   0.922   2.474
  619SOL    HW1 6704   1.784   0.893   2.482
  619SOL    HW2 6705   1.681   0.987   2.399
  620SOL     OW 6706   1.641   1.108   2.294
  620SOL    HW1 6707   1.727   1.110   2.242
  620SOL    HW2 6708   1.655   1.155   2.382
  621SOL     OW 6709   0.113   0.737   3.459
  621SOL    HW1 6710   0.201   0.724   3.504
  621SOL    HW2 6711   0.100   0.834   3.437
  622SOL     OW 6712   0.613   1.365   2.588
  622SOL    HW1 6713   0.564   1.278   2.597
  622SOL    HW2 6714   0.590   1.408   2.501
  623SOL     OW 6715   1.293   1.228   3.285
  623SOL    HW1 6716   1.330   1.155   3.227
  623SOL    HW2 6717   1.345   1.233   3.370
  624SOL     OW 6718   0.809   0.004   2.364
  624SOL    HW1 6719   0.849   0.095   2.355
  624SOL    HW2 6720   0.709   0.012   2.370
  625SOL     OW 6721   0.197   0.976   3.126
  625SOL    HW1 6722   0.286   0.931   3.112
  625SOL    HW2 6723   0.124   0.911   3.107
  626SOL     OW 6724   1.525   0.999   2.052
  626SOL    HW1 6725   1.462   0.923   2.065
  626SOL    HW2 6726   1.573   1.017   2.138
  627SOL     OW 6727   1.187   1.792   3.478
  627SOL    HW1 6728   1.211   1.852   3.402
  627SOL    HW2 6729   1.194   1.697   3.448
  628SOL     OW 6730   1.466   1.417   2.815
  628SOL    HW1 6731   1.407   1.423   2.895
  628SOL    HW2 6732   1.451   1.329   2.769
  629SOL     OW 6733   1.667   1.714   2.434
  629SOL    HW1 6734   1.626   1.691   2.346
  629SOL    HW2 6735   1.649   1.640   2.499
  630SOL     OW 6736   0.598   0.729   2.132
  630SOL    HW1 6737   0.622   0.798   2.064
  630SOL    HW2 6738   0.520   0.762   2.186
  631SOL     OW 6739   1.281   0.345   2.806
  631SOL    HW1 6740   1.195   0.295   2.793
  631SOL    HW2 6741   1.343   0.291   2.862
  632SOL     OW 6742   1.576   1.662   2.169
  632SOL    HW1 6743   1.665   1.708   2.172
  632SOL    HW2 6744   1.555   1.638   2.074
  633SOL     OW 6745   0.807   0.605   3.327
  633SOL    HW1 6746   0.760   0.602   3.416
  633SOL    HW2 6747   0.756   0.550   3.261
  634SOL     OW 6748   1.394   0.469   3.536
  634SOL    HW1 6749   1.374   0.512   3.624
  634SOL    HW2 6750   1.472   0.407   3.545
  635SOL     OW 6751   0.973   0.890   3.434
  635SOL    HW1 6752   1.019   0.806   3.405
  635SOL    HW2 6753   0.917   0.924   3.359
  636SOL     OW 6754   0.991   0.410   3.104
  636SOL    HW1 6755   0.914   0.444   3.158
  636SOL    HW2 6756   0.957   0.359   3.025
  637SOL     OW 6757   1.041   0.701   2.291
  637SOL    HW1 6758   1.067   0.697   2.387
  637SOL    HW2 6759   0.956   0.650   2.277
  638SOL     OW 6760   0.076   0.811   2.651
  638SOL    HW1 6761   0.175   0.799   2.660
  638SOL    HW2 6762   0.052   0.906   2.672
  639SOL     OW 6763   0.130   1.821   3.433
  639SOL    HW1 6764   0.120   1.806   3.532
  639SOL    HW2 6765   0.044   1.857   3.397
  640SOL     OW 6766   0.865   0.348   2.057
  640SOL    HW1 6767   0.924   0.411   2.008
  640SOL    HW2 6768   0.884   0.254   2.028
  641SOL     OW 6769   1.719   0.585   3.693
  641SOL    HW1 6770   1.693   0.674   3.657
  641SOL    HW2 6771   1.717   0.517   3.620
  642SOL     OW 6772   1.362   1.144   2.407
  642SOL    HW1 6773   1.445   1.115   2.359
  642SOL    HW2 6774   1.313   1.211   2.351
  643SOL     OW 6775   0.550   0.196   2.747
  643SOL    HW1 6776   0.545   0.191   2.847
  643SOL    HW2 6777   0.552   0.292   2.718
  644SOL     OW 6778   1.008   1.456   2.339
  644SOL    HW1 6779   0.962   1.528   2.287
  644SOL    HW2 6780   1.004   1.476   2.437
  645SOL     OW 6781   0.351   1.801   2.715
  645SOL    HW1 6782   0.401   1.715   2.721
  645SOL    HW2 6783   0.416   1.878   2.712
  646SOL     OW 6784   1.227   1.550   3.368
  646SOL    HW1 6785   1.233   1.473   3.432
  646SOL    HW2 6786   1.175   1.524   3.288
  647SOL     OW 6787   0.461   1.266   3.589
  647SOL    HW1 6788   0.411   1.267   3.503
  647SOL    HW2 6789   0.398   1.248   3.665
  648SOL     OW 6790   1.111   1.776   2.099
  648SOL    HW1 6791   1.051   1.714   2.149
  648SOL    HW2 6792   1.142   1.732   2.014
  649SOL     OW 6793   1.632   1.377   1.943
  649SOL    HW1 6794   1.600   1.471   1.933
  649SOL    HW2 6795   1.556   1.314   1.931
  650SOL     OW 6796   0.464   1.743   2.185
  650SOL    HW1 6797   0.497   1.782   2.271
  650SOL    HW2 6798   0.540   1.736   2.120
  651SOL     OW 6799   1.400   0.107   2.288
  651SOL    HW1 6800   1.376   0.070   2.198
  651SOL    HW2 6801   1.499   0.123   2.292
  652SOL     OW 6802   0.249   1.785   3.103
  652SOL    HW1 6803   0.306   1.720   3.153
  652SOL    HW2 6804   0.233   1.752   3.010
  653SOL     OW 6805   0.940   1.698   2.766
  653SOL    HW1 6806   1.020   1.641   2.787
  653SOL    HW2 6807   0.891   1.658   2.689
  654SOL     OW 6808   0.382   0.700   2.342
  654SOL    HW1 6809   0.427   0.610   2.339
  654SOL    HW2 6810   0.288   0.689   2.375
  655SOL     OW 6811   1.547   0.222   3.591
  655SOL    HW1 6812   1.542   0.259   3.683
  655SOL    HW2 6813   1.475   0.153   3.579
  656SOL     OW 6814   0.614   0.122   1.979
  656SOL    HW1 6815   0.712   0.100   1.986
  656SOL    HW2 6816   0.583   0.105   1.886
  657SOL     OW 6817   0.781   0.264   3.611
  657SOL    HW1 6818   0.848   0.203   3.654
  657SOL    HW2 6819   0.708   0.283   3.676
  658SOL     OW 6820   0.888   1.514   3.057
  658SOL    HW1 6821   0.865   1.489   2.963
  658SOL    HW2 6822   0.949   1.445   3.096
  659SOL     OW 6823   1.351   0.590   3.295
  659SOL    HW1 6824   1.379   0.547   3.380
  659SOL    HW2 6825   1.376   0.686   3.296
  660SOL     OW 6826   0.803   1.402   2.786
  660SOL    HW1 6827   0.893   1.416   2.744
  660SOL    HW2 6828   0.732   1.404   2.715
  661SOL     OW 6829   0.922   0.503   2.761
  661SOL    HW1 6830   0.897   0.494   2.665
  661SOL    HW2 6831   0.970   0.421   2.792
  662SOL     OW 6832   0.539   0.064   2.374
  662SOL    HW1 6833   0.458   0.065   2.432
  662SOL    HW2 6834   0.542   0.147   2.319
  663SOL     OW 6835   1.434   1.188   1.903
  663SOL    HW1 6836   1.466   1.112   1.960
  663SOL    HW2 6837   1.342   1.215   1.933
  664SOL     OW 6838   0.297   0.035   2.033
  664SOL    HW1 6839   0.346   0.119   2.012
  664SOL    HW2 6840   0.359  -0.030   2.078
  665SOL     OW 6841   0.935   0.236   2.342
  665SOL    HW1 6842   0.887   0.277   2.264
  665SOL    HW2 6843   1.034   0.234   2.323
  666SOL     OW 6844   1.076   0.683   3.326
  666SOL    HW1 6845   0.996   0.622   3.329
  666SOL    HW2 6846   1.157   0.630   3.302
  667SOL     OW 6847   1.227   1.570   2.655
  667SOL    HW1 6848   1.248   1.644   2.590
  667SOL    HW2 6849   1.295   1.570   2.728
  668SOL     OW 6850   0.459   1.152   2.603
  668SOL    HW1 6851   0.388   1.125   2.668
  668SOL    HW2 6852   0.433   1.124   2.510
  669SOL     OW 6853   1.271   1.797   2.453
  669SOL    HW1 6854   1.315   1.861   2.389
  669SOL    HW2 6855   1.221   1.849   2.523
  670SOL     OW 6856   1.032   0.549   1.878
  670SOL    HW1 6857   0.991   0.631   1.839
  670SOL    HW2 6858   1.096   0.575   1.951
  671SOL     OW 6859   0.078   0.556   3.248
  671SOL    HW1 6860   0.170   0.555   3.207
  671SOL    HW2 6861   0.072   0.630   3.315
  672SOL     OW 6862   0.561   0.222   3.009
  672SOL    HW1 6863   0.599   0.138   3.046
  672SOL    HW2 6864   0.473   0.241   3.053
  673SOL     OW 6865   0.866   0.454   2.504
  673SOL    HW1 6866   0.834   0.526   2.442
  673SOL    HW2 6867   0.890   0.373   2.451
  674SOL     OW 6868   1.017   0.039   2.615
  674SOL    HW1 6869   0.945   0.044   2.546
  674SOL    HW2 6870   0.993  -0.030   2.684
  675SOL     OW 6871   1.429   1.173   2.729
  675SOL    HW1 6872   1.374   1.089   2.722
  675SOL    HW2 6873   1.455   1.202   2.637
  676SOL     OW 6874   1.466   0.590   2.854
  676SOL    HW1 6875   1.436   0.495   2.861
  676SOL    HW2 6876   1.539   0.606   2.920
  677SOL     OW 6877   1.857   0.833   2.239
  677SOL    HW1 6878   1.899   0.769   2.303
  677SOL    HW2 6879   1.819   0.782   2.161
  678SOL     OW 6880   0.488   1.385   2.036
  678SOL    HW1 6881   0.401   1.370   2.083
  678SOL    HW2 6882   0.471   1.411   1.941
  679SOL     OW 6883   1.664   1.280   2.519
  679SOL    HW1 6884   1.763   1.288   2.533
  679SOL    HW2 6885   1.619   1.364   2.550
  680SOL     OW 6886   1.390   0.575   1.940
  680SOL    HW1 6887   1.336   0.554   2.021
  680SOL    HW2 6888   1.481   0.534   1.949
  681SOL     OW 6889   0.527   0.256   2.190
  681SOL    HW1 6890   0.554   0.197   2.115
  681SOL    HW2 6891   0.527   0.351   2.159
  682SOL     OW 6892   1.754   1.223   3.450
  682SOL    HW1 6893   1.845   1.184   3.437
  682SOL    HW2 6894   1.762   1.319   3.474
  683SOL     OW 6895   1.064   1.347   3.202
  683SOL    HW1 6896   0.984   1.324   3.257
  683SOL    HW2 6897   1.147   1.321   3.251
  684SOL     OW 6898   1.592   1.629   3.487
  684SOL    HW1 6899   1.619   1.663   3.397
  684SOL    HW2 6900   1.671   1.591   3.533
  685SOL     OW 6901   1.111   1.195   2.962
  685SOL    HW1 6902   1.071   1.239   3.043
  685SOL    HW2 6903   1.070   1.232   2.879
  686SOL     OW 6904   0.915   0.089   3.264
  686SOL    HW1 6905   0.940   0.069   3.169
  686SOL    HW2 6906   0.987   0.145   3.306
  687SOL     OW 6907   0.980   1.116   3.581
  687SOL    HW1 6908   0.881   1.122   3.591
  687SOL    HW2 6909   1.003   1.036   3.525
  688SOL     OW 6910   0.705   1.050   2.230
  688SOL    HW1 6911   0.691   1.057   2.329
  688SOL    HW2 6912   0.789   0.999   2.212
  689SOL     OW 6913   0.410   0.813   3.113
  689SOL    HW1 6914   0.496   0.825   3.163
  689SOL    HW2 6915   0.368   0.726   3.140
  690SOL     OW 6916   1.274   0.386   3.124
  690SOL    HW1 6917   1.295   0.460   3.188
  690SOL    HW2 6918   1.185   0.403   3.081
  691SOL     OW 6919   0.064   1.564   3.193
  691SOL    HW1 6920   0.018   1.646   3.159
  691SOL    HW2 6921   0.162   1.583   3.202
  692SOL     OW 6922   0.367   1.100   2.363
  692SOL    HW1 6923   0.360   1.183   2.307
  692SOL    HW2 6924   0.371   1.020   2.303
  693SOL     OW 6925   0.566   0.537   2.727
  693SOL    HW1 6926   0.578   0.603   2.653
  693SOL    HW2 6927   0.612   0.571   2.810
  694SOL     OW 6928   1.252   1.348   2.250
  694SOL    HW1 6929   1.302   1.425   2.290
  694SOL    HW2 6930   1.157   1.350   2.282
  695SOL     OW 6931   1.272   1.445   3.004
  695SOL    HW1 6932   1.319   1.458   3.091
  695SOL    HW2 6933   1.206   1.371   3.013
  696SOL     OW 6934   1.582   0.639   2.334
  696SOL    HW1 6935   1.551   0.700   2.407
  696SOL    HW2 6936   1.632   0.691   2.265
  697SOL     OW 6937   0.354   1.510   3.191
  697SOL    HW1 6938   0.333   1.466   3.104
  697SOL    HW2 6939   0.451   1.536   3.194
  698SOL     OW 6940   0.402   0.751   3.460
  698SOL    HW1 6941   0.470   0.806   3.413
  698SOL    HW2 6942   0.442   0.663   3.487
  699SOL     OW 6943   1.587   0.779   3.532
  699SOL    HW1 6944   1.495   0.817   3.527
  699SOL    HW2 6945   1.647   0.826   3.467
  700SOL     OW 6946   1.013   0.105   3.632
  700SOL    HW1 6947   1.019   0.190   3.580
  700SOL    HW2 6948   1.045   0.029   3.575
  701SOL     OW 6949   0.573   0.870   2.891
  701SOL    HW1 6950   0.617   0.959   2.882
  701SOL    HW2 6951   0.510   0.870   2.968
  702SOL     OW 6952   1.209   0.525   2.137
  702SOL    HW1 6953   1.222   0.441   2.191
  702SOL    HW2 6954   1.180   0.599   2.197
  703SOL     OW 6955   0.307   0.213   3.093
  703SOL    HW1 6956   0.284   0.250   3.183
  703SOL    HW2 6957   0.277   0.118   3.087
  704SOL     OW 6958   0.037   1.310   3.144
  704SOL    HW1 6959   0.090   1.261   3.212
  704SOL    HW2 6960   0.059   1.408   3.149
  705SOL     OW 6961   0.732   0.634   2.926
  705SOL    HW1 6962   0.791   0.608   2.850
  705SOL    HW2 6963   0.704   0.730   2.915
  706SOL     OW 6964   1.728   0.935   3.716
  706SOL    HW1 6965   1.682   0.928   3.627
  706SOL    HW2 6966   1.666   0.979   3.782
  707SOL     OW 6967   0.307   0.063   2.480
  707SOL    HW1 6968   0.296   0.157   2.513
  707SOL    HW2 6969   0.302   0.000   2.557
  708SOL     OW 6970   1.622   0.367   2.236
  708SOL    HW1 6971   1.624   0.291   2.300
  708SOL    HW2 6972   1.574   0.444   2.276
  709SOL     OW 6973   1.023   0.766   2.828
  709SOL    HW1 6974   1.038   0.787   2.924
  709SOL    HW2 6975   0.993   0.671   2.819
  710SOL     OW 6976   0.980   1.573   3.562
  710SOL    HW1 6977   0.960   1.617   3.474
  710SOL    HW2 6978   1.019   1.482   3.546
  711SOL     OW 6979   1.859   1.518   3.467
  711SOL    HW1 6980   1.873   1.545   3.372
  711SOL    HW2 6981   1.942   1.540   3.520
  712SOL     OW 6982   0.350   0.898   3.666
  712SOL    HW1 6983   0.426   0.942   3.714
  712SOL    HW2 6984   0.385   0.851   3.584
  713SOL     OW 6985   1.540   0.274   1.987
  713SOL    HW1 6986   1.479   0.199   2.010
  713SOL    HW2 6987   1.562   0.326   2.070
  714SOL     OW 6988   1.303   0.838   1.904
  714SOL    HW1 6989   1.337   0.745   1.919
  714SOL    HW2 6990   1.321   0.865   1.809
  715SOL     OW 6991   1.068   1.333   2.711
  715SOL    HW1 6992   1.075   1.249   2.656
  715SOL    HW2 6993   1.130   1.402   2.675
  716SOL     OW 6994   0.319   0.810   2.811
  716SOL    HW1 6995   0.412   0.846   2.816
  716SOL    HW2 6996   0.313   0.725   2.863
  717SOL     OW 6997   0.339   0.509   2.868
  717SOL    HW1 6998   0.287   0.426   2.851
  717SOL    HW2 6999   0.416   0.514   2.804
  718SOL     OW 7000   1.138   0.380   3.540
  718SOL    HW1 7001   1.093   0.443   3.604
  718SOL    HW2 7002   1.231   0.411   3.523
  719SOL     OW 7003   1.160   0.207   3.339
  719SOL    HW1 7004   1.160   0.271   3.416
  719SOL    HW2 7005   1.188   0.255   3.256
  720SOL     OW 7006   0.008   1.326   2.062
  720SOL    HW1 7007  -0.085   1.347   2.031
  720SOL    HW2 7008   0.018   1.227   2.075
  721SOL     OW 7009   0.088   1.801   2.789
  721SOL    HW1 7010   0.046   1.715   2.762
  721SOL    HW2 7011   0.182   1.804   2.755
  722SOL     OW 7012   0.504   1.568   2.772
  722SOL    HW1 7013   0.570   1.642   2.781
  722SOL    HW2 7014   0.548   1.489   2.730
  723SOL     OW 7015   1.002   0.796   3.100
  723SOL    HW1 7016   1.043   0.764   3.186
  723SOL    HW2 7017   0.906   0.769   3.097
  724SOL     OW 7018   0.040   0.544   2.976
  724SOL    HW1 7019   0.125   0.511   2.935
  724SOL    HW2 7020   0.053   0.559   3.074
  725SOL     OW 7021   1.369   0.950   3.522
  725SOL    HW1 7022   1.408   1.039   3.542
  725SOL    HW2 7023   1.379   0.930   3.425
  726SOL     OW 7024   0.815   0.572   2.187
  726SOL    HW1 7025   0.822   0.483   2.141
  726SOL    HW2 7026   0.721   0.606   2.179
  727SOL     OW 7027   1.657   0.604   3.068
  727SOL    HW1 7028   1.619   0.535   3.130
  727SOL    HW2 7029   1.739   0.568   3.024
  728SOL     OW 7030   0.671   0.464   3.131
  728SOL    HW1 7031   0.637   0.375   3.101
  728SOL    HW2 7032   0.697   0.518   3.051
  729SOL     OW 7033   0.930   1.678   3.327
  729SOL    HW1 7034   0.906   1.660   3.232
  729SOL    HW2 7035   0.960   1.772   3.337
  730SOL     OW 7036   0.159   1.137   3.328
  730SOL    HW1 7037   0.181   1.076   3.404
  730SOL    HW2 7038   0.169   1.088   3.242
  731SOL     OW 7039   1.302   0.855   2.171
  731SOL    HW1 7040   1.216   0.824   2.213
  731SOL    HW2 7041   1.298   0.841   2.072
  732SOL     OW 7042   1.759   1.747   3.016
  732SOL    HW1 7043   1.820   1.777   2.943
  732SOL    HW2 7044   1.721   1.658   2.994
  733SOL     OW 7045   1.252   1.731   2.990
  733SOL    HW1 7046   1.336   1.736   2.936
  733SOL    HW2 7047   1.229   1.635   3.008
  734SOL     OW 7048   0.083   1.258   2.884
  734SOL    HW1 7049   0.078   1.257   2.984
  734SOL    HW2 7050   0.000   1.217   2.846
  735SOL     OW 7051   0.688   1.662   3.578
  735SOL    HW1 7052   0.632   1.743   3.587
  735SOL    HW2 7053   0.740   1.666   3.492
  736SOL     OW 7054   1.726   0.135   2.385
  736SOL    HW1 7055   1.799   0.118   2.318
  736SOL    HW2 7056   1.695   0.048   2.423
  737SOL     OW 7057   1.388   1.573   2.339
  737SOL    HW1 7058   1.455   1.585   2.265
  737SOL    HW2 7059   1.348   1.662   2.362
  738SOL     OW 7060   0.130   1.794   3.713
  738SOL    HW1 7061   0.089   1.720   3.766
  738SOL    HW2 7062   0.194   1.845   3.771
  739SOL     OW 7063   1.280   0.927   2.534
  739SOL    HW1 7064   1.340   0.846   2.536
  739SOL    HW2 7065   1.320   0.996   2.474
  740SOL     OW 7066   0.830   1.273   3.284
  740SOL    HW1 7067   0.825   1.306   3.379
  740SOL    HW2 7068   0.744   1.292   3.238
  741SOL     OW 7069   0.672   1.616   2.016
  741SOL    HW1 7070   0.681   1.626   1.917
  741SOL    HW2 7071   0.632   1.527   2.037
  742SOL     OW 7072   1.650   1.720   3.256
  742SOL    HW1 7073   1.703   1.730   3.172
  742SOL    HW2 7074   1.623   1.810   3.290
  743SOL     OW 7075   1.841   0.175   2.825
  743SOL    HW1 7076   1.880   0.090   2.789
  743SOL    HW2 7077   1.743   0.177   2.806
  744SOL     OW 7078   0.263   0.326   2.582
  744SOL    HW1 7079   0.184   0.377   2.548
  744SOL    HW2 7080   0.254   0.311   2.680
  745SOL     OW 7081   1.194   1.612   1.893
  745SOL    HW1 7082   1.200   1.519   1.930
  745SOL    HW2 7083   1.135   1.612   1.813
  746SOL     OW 7084   0.822   1.002   3.234
  746SOL    HW1 7085   0.862   1.001   3.142
  746SOL    HW2 7086   0.832   1.094   3.274
  747SOL     OW 7087   0.916   0.910   2.153
  747SOL    HW1 7088   0.979   0.948   2.085
  747SOL    HW2 7089   0.956   0.827   2.192
  748SOL     OW 7090   1.504   1.607   1.906
  748SOL    HW1 7091   1.412   1.644   1.913
  748SOL    HW2 7092   1.542   1.627   1.816
  749SOL     OW 7093   0.372   1.288   3.352
  749SOL    HW1 7094   0.359   1.381   3.318
  749SOL    HW2 7095   0.288   1.236   3.339
  750SOL     OW 7096   1.614   1.292   3.151
  750SOL    HW1 7097   1.674   1.295   3.231
  750SOL    HW2 7098   1.539   1.356   3.164
  751SOL     OW 7099   1.039   1.098   2.558
  751SOL    HW1 7100   0.969   1.051   2.612
  751SOL    HW2 7101   1.098   1.030   2.515
  752SOL     OW 7102   1.014   0.236   2.833
  752SOL    HW1 7103   1.006   0.200   2.740
  752SOL    HW2 7104   1.012   0.160   2.898
  753SOL     OW 7105   0.590   1.487   2.353
  753SOL    HW1 7106   0.632   1.429   2.283
  753SOL    HW2 7107   0.546   1.566   2.309
  754SOL     OW 7108   1.709   0.385   3.243
  754SOL    HW1 7109   1.782   0.454   3.247
  754SOL    HW2 7110   1.737   0.310   3.184
  755SOL     OW 7111   0.255   1.348   2.152
  755SOL    HW1 7112   0.159   1.349   2.125
  755SOL    HW2 7113   0.267   1.401   2.236
  756SOL     OW 7114   0.105   1.013   3.588
  756SOL    HW1 7115   0.028   0.980   3.642
  756SOL    HW2 7116   0.190   0.983   3.630
  757SOL     OW 7117   1.183   1.335   1.981
  757SOL    HW1 7118   1.084   1.324   1.983
  757SOL    HW2 7119   1.217   1.350   2.074
  758SOL     OW 7120   0.613   0.842   3.293
  758SOL    HW1 7121   0.669   0.923   3.276
  758SOL    HW2 7122   0.672   0.762   3.296
  759SOL     OW 7123   1.493   1.767   2.821
  759SOL    HW1 7124   1.526   1.831   2.752
  759SOL    HW2 7125   1.559   1.761   2.896
  760SOL     OW 7126   0.716   0.565   3.570
  760SOL    HW1 7127   0.735   0.630   3.644
  760SOL    HW2 7128   0.776   0.485   3.579
  761SOL     OW 7129   1.450   1.220   3.495
  761SOL    HW1 7130   1.441   1.210   3.594
  761SOL    HW2 7131   1.546   1.213   3.469
  762SOL     OW 7132   0.390   1.741   3.422
  762SOL    HW1 7133   0.299   1.782   3.420
  762SOL    HW2 7134   0.383   1.647   3.454
  763SOL     OW 7135   1.225   0.325   2.311
  763SOL    HW1 7136   1.290   0.251   2.300
  763SOL    HW2 7137   1.245   0.375   2.395
  764SOL     OW 7138   0.594   0.745   2.514
  764SOL    HW1 7139   0.644   0.830   2.495
  764SOL    HW2 7140   0.506   0.747   2.466
  765SOL     OW 7141   1.777   0.342   3.504
  765SOL    HW1 7142   1.760   0.373   3.410
  765SOL    HW2 7143   1.693   0.305   3.542
  766SOL     OW 7144   1.730   0.934   3.379
  766SOL    HW1 7145   1.768   1.025   3.394
  766SOL    HW2 7146   1.722   0.917   3.280
  767SOL     OW 7147   0.859   1.374   1.878
  767SOL    HW1 7148   0.813   1.389   1.966
  767SOL    HW2 7149   0.903   1.459   1.848
  768SOL     OW 7150   0.661   1.790   2.815
  768SOL    HW1 7151   0.615   1.878   2.802
  768SOL    HW2 7152   0.760   1.802   2.808
  769SOL     OW 7153   0.859   0.956   2.723
  769SOL    HW1 7154   0.913   0.887   2.771
  769SOL    HW2 7155   0.827   1.025   2.789
  770SOL     OW 7156   1.083   0.984   1.949
  770SOL    HW1 7157   1.060   1.037   1.867
  770SOL    HW2 7158   1.164   0.928   1.930
  771SOL     OW 7159   1.861   1.569   2.713
  771SOL    HW1 7160   1.790   1.557   2.643
  771SOL    HW2 7161   1.862   1.490   2.773
  772SOL     OW 7162   0.079   1.240   2.515
  772SOL    HW1 7163   0.078   1.193   2.603
  772SOL    HW2 7164   0.161   1.212   2.464
  773SOL     OW 7165   0.672   1.391   3.486
  773SOL    HW1 7166   0.594   1.341   3.524
  773SOL    HW2 7167   0.669   1.486   3.517
  774SOL     OW 7168   1.824   0.192   3.089
  774SOL    HW1 7169   1.820   0.102   3.133
  774SOL    HW2 7170   1.827   0.181   2.990
  775SOL     OW 7171   0.428   0.424   2.382
  775SOL    HW1 7172   0.458   0.352   2.320
  775SOL    HW2 7173   0.389   0.384   2.465
  776SOL     OW 7174   1.705   1.487   2.966
  776SOL    HW1 7175   1.612   1.462   2.939
  776SOL    HW2 7176   1.731   1.437   3.048
  777SOL     OW 7177   0.812   1.586   2.549
  777SOL    HW1 7178   0.844   1.596   2.455
  777SOL    HW2 7179   0.733   1.524   2.551
  778SOL     OW 7180   1.424   0.214   2.974
  778SOL    HW1 7181   1.476   0.149   3.029
  778SOL    HW2 7182   1.375   0.277   3.035
  779SOL     OW 7183   1.001   0.034   3.016
  779SOL    HW1 7184   0.938  -0.038   2.985
  779SOL    HW2 7185   1.094  -0.002   3.016
  780SOL     OW 7186   0.770   1.330   2.163
  780SOL    HW1 7187   0.724   1.243   2.180
  780SOL    HW2 7188   0.861   1.327   2.204
  781SOL     OW 7189   0.618   1.567   3.146
  781SOL    HW1 7190   0.613   1.649   3.203
  781SOL    HW2 7191   0.707   1.564   3.101
  782SOL     OW 7192   1.352   0.052   2.030
  782SOL    HW1 7193   1.387   0.011   1.946
  782SOL    HW2 7194   1.262   0.014   2.050
  783SOL     OW 7195   1.300   0.453   2.553
  783SOL    HW1 7196   1.241   0.533   2.557
  783SOL    HW2 7197   1.315   0.418   2.646
  784SOL     OW 7198   1.593   0.221   2.744
  784SOL    HW1 7199   1.509   0.220   2.798
  784SOL    HW2 7200   1.595   0.304   2.688
  785SOL     OW 7201   0.039   1.077   2.162
  785SOL    HW1 7202   0.138   1.066   2.153
  785SOL    HW2 7203  -0.001   0.991   2.194
  786SOL     OW 7204   0.875   1.646   2.199
  786SOL    HW1 7205   0.798   1.611   2.145
  786SOL    HW2 7206   0.843   1.717   2.261
  787SOL     OW 7207   0.230   0.628   3.837
  787SOL    HW1 7208   0.137   0.626   3.874
  787SOL    HW2 7209   0.231   0.589   3.745
  788SOL     OW 7210   0.225   0.275   4.720
  788SOL    HW1 7211   0.260   0.258   4.812
  788SOL    HW2 7212   0.137   0.230   4.708
  789SOL     OW 7213   1.555   1.511   4.427
  789SOL    HW1 7214   1.498   1.495   4.508
  789SOL    HW2 7215   1.496   1.521   4.347
  790SOL     OW 7216   1.135   0.703   4.441
  790SOL    HW1 7217   1.192   0.781   4.416
  790SOL    HW2 7218   1.075   0.729   4.517
  791SOL     OW 7219   1.755   0.607   3.955
  791SOL    HW1 7220   1.743   0.594   3.856
  791SOL    HW2 7221   1.725   0.526   4.004
  792SOL     OW 7222   0.768   1.144   4.747
  792SOL    HW1 7223   0.690   1.161   4.807
  792SOL    HW2 7224   0.802   1.231   4.711
  793SOL     OW 7225   0.850   0.798   5.547
  793SOL    HW1 7226   0.846   0.874   5.612
  793SOL    HW2 7227   0.872   0.834   5.456
  794SOL     OW 7228   0.685   1.012   4.389
  794SOL    HW1 7229   0.754   0.996   4.459
  794SOL    HW2 7230   0.612   1.069   4.427
  795SOL     OW 7231   0.686   1.161   5.527
  795SOL    HW1 7232   0.746   1.240   5.541
  795SOL    HW2 7233   0.600   1.192   5.486
  796SOL     OW 7234   1.460   1.505   5.063
  796SOL    HW1 7235   1.484   1.599   5.089
  796SOL    HW2 7236   1.444   1.451   5.145
  797SOL     OW 7237   1.603   0.447   4.461
  797SOL    HW1 7238   1.529   0.493   4.411
  797SOL    HW2 7239   1.654   0.515   4.514
  798SOL     OW 7240   1.127   1.341   5.414
  798SOL    HW1 7241   1.174   1.341   5.502
  798SOL    HW2 7242   1.079   1.254   5.403
  799SOL     OW 7243   0.240   1.091   4.610
  799SOL    HW1 7244   0.254   1.007   4.662
  799SOL    HW2 7245   0.185   1.155   4.665
  800SOL     OW 7246   0.620   1.786   5.163
  800SOL    HW1 7247   0.528   1.769   5.198
  800SOL    HW2 7248   0.648   1.878   5.189
  801SOL     OW 7249   0.606   0.964   3.847
  801SOL    HW1 7250   0.613   1.048   3.793
  801SOL    HW2 7251   0.652   0.977   3.935
  802SOL     OW 7252   1.594   0.114   5.204
  802SOL    HW1 7253   1.576   0.181   5.132
  802SOL    HW2 7254   1.591   0.160   5.293
  803SOL     OW 7255   0.122   0.643   4.287
  803SOL    HW1 7256   0.077   0.555   4.304
  803SOL    HW2 7257   0.121   0.697   4.371
  804SOL     OW 7258   1.842   1.767   4.083
  804SOL    HW1 7259   1.896   1.738   4.163
  804SOL    HW2 7260   1.872   1.857   4.054
  805SOL     OW 7261   1.641   1.108   4.156
  805SOL    HW1 7262   1.727   1.110   4.104
  805SOL    HW2 7263   1.655   1.155   4.244
  806SOL     OW 7264   0.113   0.737   5.321
  806SOL    HW1 7265   0.201   0.724   5.366
  806SOL    HW2 7266   0.100   0.834   5.299
  807SOL     OW 7267   0.613   1.365   4.450
  807SOL    HW1 7268   0.564   1.278   4.459
  807SOL    HW2 7269   0.590   1.408   4.363
  808SOL     OW 7270   1.293   1.228   5.147
  808SOL    HW1 7271   1.330   1.155   5.089
  808SOL    HW2 7272   1.345   1.233   5.232
  809SOL     OW 7273   0.809   0.004   4.226
  809SOL    HW1 7274   0.849   0.095   4.217
  809SOL    HW2 7275   0.709   0.012   4.232
  810SOL     OW 7276   0.197   0.976   4.988
  810SOL    HW1 7277   0.286   0.931   4.974
  810SOL    HW2 7278   0.124   0.911   4.969
  811SOL     OW 7279   1.525   0.999   3.914
  811SOL    HW1 7280   1.462   0.923   3.927
  811SOL    HW2 7281   1.573   1.017   4.000
  812SOL     OW 7282   1.187   1.792   5.340
  812SOL    HW1 7283   1.211   1.852   5.264
  812SOL    HW2 7284   1.194   1.697   5.310
  813SOL     OW 7285   1.466   1.417   4.677
  813SOL    HW1 7286   1.407   1.423   4.757
  813SOL    HW2 7287   1.451   1.329   4.631
  814SOL     OW 7288   1.667   1.714   4.296
  814SOL    HW1 7289   1.626   1.691   4.208
  814SOL    HW2 7290   1.649   1.640   4.361
  815SOL     OW 7291   0.598   0.729   3.994
  815SOL    HW1 7292   0.622   0.798   3.926
  815SOL    HW2 7293   0.520   0.762   4.048
  816SOL     OW 7294   1.281   0.345   4.668
  816SOL    HW1 7295   1.195   0.295   4.655
  816SOL    HW2 7296   1.343   0.291   4.724
  817SOL     OW 7297   1.576   1.662   4.031
  817SOL    HW1 7298   1.665   1.708   4.034
  817SOL    HW2 7299   1.555   1.638   3.936
  818SOL     OW 7300   1.394   0.469   5.398
  818SOL    HW1 7301   1.374   0.512   5.486
  818SOL    HW2 7302   1.472   0.407   5.407
  819SOL     OW 7303   0.973   0.890   5.296
  819SOL    HW1 7304   1.019   0.806   5.267
  819SOL    HW2 7305   0.917   0.924   5.221
  820SOL     OW 7306   0.991   0.410   4.966
  820SOL    HW1 7307   0.914   0.444   5.020
  820SOL    HW2 7308   0.957   0.359   4.887
  821SOL     OW 7309   1.041   0.701   4.153
  821SOL    HW1 7310   1.067   0.697   4.249
  821SOL    HW2 7311   0.956   0.650   4.139
  822SOL     OW 7312   0.076   0.811   4.513
  822SOL    HW1 7313   0.175   0.799   4.522
  822SOL    HW2 7314   0.052   0.906   4.534
  823SOL     OW 7315   0.130   1.821   5.295
  823SOL    HW1 7316   0.120   1.806   5.394
  823SOL    HW2 7317   0.044   1.857   5.259
  824SOL     OW 7318   0.865   0.348   3.919
  824SOL    HW1 7319   0.924   0.411   3.870
  824SOL    HW2 7320   0.884   0.254   3.890
  825SOL     OW 7321   1.719   0.585   5.555
  825SOL    HW1 7322   1.693   0.674   5.519
  825SOL    HW2 7323   1.717   0.517   5.482
  826SOL     OW 7324   1.362   1.144   4.269
  826SOL    HW1 7325   1.445   1.115   4.221
  826SOL    HW2 7326   1.313   1.211   4.213
  827SOL     OW 7327   1.008   1.456   4.201
  827SOL    HW1 7328   0.962   1.528   4.149
  827SOL    HW2 7329   1.004   1.476   4.299
  828SOL     OW 7330   1.795   1.066   4.597
  828SOL    HW1 7331   1.733   1.051   4.521
  828SOL    HW2 7332   1.743   1.077   4.682
  829SOL     OW 7333   1.227   1.550   5.230
  829SOL    HW1 7334   1.233   1.473   5.294
  829SOL    HW2 7335   1.175   1.524   5.150
  830SOL     OW 7336   0.321   0.943   3.966
  830SOL    HW1 7337   0.403   0.982   3.924
  830SOL    HW2 7338   0.294   0.861   3.917
  831SOL     OW 7339   1.458   0.735   4.452
  831SOL    HW1 7340   1.453   0.670   4.527
  831SOL    HW2 7341   1.538   0.794   4.465
  832SOL     OW 7342   0.461   1.266   5.451
  832SOL    HW1 7343   0.411   1.267   5.365
  832SOL    HW2 7344   0.398   1.248   5.527
  833SOL     OW 7345   1.111   1.776   3.961
  833SOL    HW1 7346   1.051   1.714   4.011
  833SOL    HW2 7347   1.142   1.732   3.876
  834SOL     OW 7348   0.202   0.285   5.222
  834SOL    HW1 7349   0.122   0.345   5.209
  834SOL    HW2 7350   0.192   0.236   5.308
  835SOL     OW 7351   1.632   1.377   3.805
  835SOL    HW1 7352   1.600   1.471   3.795
  835SOL    HW2 7353   1.556   1.314   3.793
  836SOL     OW 7354   0.464   1.743   4.047
  836SOL    HW1 7355   0.497   1.782   4.133
  836SOL    HW2 7356   0.540   1.736   3.982
  837SOL     OW 7357   1.400   0.107   4.150
  837SOL    HW1 7358   1.376   0.070   4.060
  837SOL    HW2 7359   1.499   0.123   4.154
  838SOL     OW 7360   0.249   1.785   4.965
  838SOL    HW1 7361   0.306   1.720   5.015
  838SOL    HW2 7362   0.233   1.752   4.872
  839SOL     OW 7363   0.940   1.698   4.628
  839SOL    HW1 7364   1.020   1.641   4.649
  839SOL    HW2 7365   0.891   1.658   4.551
  840SOL     OW 7366   0.382   0.700   4.204
  840SOL    HW1 7367   0.427   0.610   4.201
  840SOL    HW2 7368   0.288   0.689   4.237
  841SOL     OW 7369   1.547   0.222   5.453
  841SOL    HW1 7370   1.542   0.259   5.545
  841SOL    HW2 7371   1.475   0.153   5.441
  842SOL     OW 7372   0.614   0.122   3.841
  842SOL    HW1 7373   0.712   0.100   3.848
  842SOL    HW2 7374   0.583   0.105   3.748
  843SOL     OW 7375   1.351   0.590   5.157
  843SOL    HW1 7376   1.379   0.547   5.242
  843SOL    HW2 7377   1.376   0.686   5.158
  844SOL     OW 7378   0.922   0.503   4.623
  844SOL    HW1 7379   0.897   0.494   4.527
  844SOL    HW2 7380   0.970   0.421   4.654
  845SOL     OW 7381   0.539   0.064   4.236
  845SOL    HW1 7382   0.458   0.065   4.294
  845SOL    HW2 7383   0.542   0.147   4.181
  846SOL     OW 7384   1.434   1.188   3.765
  846SOL    HW1 7385   1.466   1.112   3.822
  846SOL    HW2 7386   1.342   1.215   3.795
  847SOL     OW 7387   0.935   0.236   4.204
  847SOL    HW1 7388   0.887   0.277   4.126
  847SOL    HW2 7389   1.034   0.234   4.185
  848SOL     OW 7390   1.076   0.683   5.188
  848SOL    HW1 7391   0.996   0.622   5.191
  848SOL    HW2 7392   1.157   0.630   5.164
  849SOL     OW 7393   1.227   1.570   4.517
  849SOL    HW1 7394   1.248   1.644   4.452
  849SOL    HW2 7395   1.295   1.570   4.590
  850SOL     OW 7396   0.459   1.152   4.465
  850SOL    HW1 7397   0.388   1.125   4.530
  850SOL    HW2 7398   0.433   1.124   4.372
  851SOL     OW 7399   1.271   1.797   4.315
  851SOL    HW1 7400   1.315   1.861   4.251
  851SOL    HW2 7401   1.221   1.849   4.385
  852SOL     OW 7402   1.032   0.549   3.740
  852SOL    HW1 7403   0.991   0.631   3.701
  852SOL    HW2 7404   1.096   0.575   3.813
  853SOL     OW 7405   0.078   0.556   5.110
  853SOL    HW1 7406   0.170   0.555   5.069
  853SOL    HW2 7407   0.072   0.630   5.177
  854SOL     OW 7408   0.866   0.454   4.366
  854SOL    HW1 7409   0.834   0.526   4.304
  854SOL    HW2 7410   0.890   0.373   4.313
  855SOL     OW 7411   1.017   0.039   4.477
  855SOL    HW1 7412   0.945   0.044   4.408
  855SOL    HW2 7413   0.993  -0.030   4.546
  856SOL     OW 7414   1.429   1.173   4.591
  856SOL    HW1 7415   1.374   1.089   4.584
  856SOL    HW2 7416   1.455   1.202   4.499
  857SOL     OW 7417   1.466   0.590   4.716
  857SOL    HW1 7418   1.436   0.495   4.723
  857SOL    HW2 7419   1.539   0.606   4.782
  858SOL     OW 7420   1.857   0.833   4.101
  858SOL    HW1 7421   1.899   0.769   4.165
  858SOL    HW2 7422   1.819   0.782   4.023
  859SOL     OW 7423   1.664   1.280   4.381
  859SOL    HW1 7424   1.763   1.288   4.395
  859SOL    HW2 7425   1.619   1.364   4.412
  860SOL     OW 7426   1.390   0.575   3.802
  860SOL    HW1 7427   1.336   0.554   3.883
  860SOL    HW2 7428   1.481   0.534   3.811
  861SOL     OW 7429   0.527   0.256   4.052
  861SOL    HW1 7430   0.554   0.197   3.977
  861SOL    HW2 7431   0.527   0.351   4.021
  862SOL     OW 7432   1.754   1.223   5.312
  862SOL    HW1 7433   1.845   1.184   5.299
  862SOL    HW2 7434   1.762   1.319   5.336
  863SOL     OW 7435   1.064   1.347   5.064
  863SOL    HW1 7436   0.984   1.324   5.119
  863SOL    HW2 7437   1.147   1.321   5.113
  864SOL     OW 7438   1.592   1.629   5.349
  864SOL    HW1 7439   1.619   1.663   5.259
  864SOL    HW2 7440   1.671   1.591   5.395
  865SOL     OW 7441   1.111   1.195   4.824
  865SOL    HW1 7442   1.071   1.239   4.905
  865SOL    HW2 7443   1.070   1.232   4.741
  866SOL     OW 7444   1.638   1.099   4.803
  866SOL    HW1 7445   1.643   1.180   4.862
  866SOL    HW2 7446   1.552   1.101   4.752
  867SOL     OW 7447   0.915   0.089   5.126
  867SOL    HW1 7448   0.940   0.069   5.031
  867SOL    HW2 7449   0.987   0.145   5.168
  868SOL     OW 7450   0.980   1.116   5.443
  868SOL    HW1 7451   0.881   1.122   5.453
  868SOL    HW2 7452   1.003   1.036   5.387
  869SOL     OW 7453   0.705   1.050   4.092
  869SOL    HW1 7454   0.691   1.057   4.191
  869SOL    HW2 7455   0.789   0.999   4.074
  870SOL     OW 7456   0.410   0.813   4.975
  870SOL    HW1 7457   0.496   0.825   5.025
  870SOL    HW2 7458   0.368   0.726   5.002
  871SOL     OW 7459   1.274   0.386   4.986
  871SOL    HW1 7460   1.295   0.460   5.050
  871SOL    HW2 7461   1.185   0.403   4.943
  872SOL     OW 7462   0.064   1.564   5.055
  872SOL    HW1 7463   0.018   1.646   5.021
  872SOL    HW2 7464   0.162   1.583   5.064
  873SOL     OW 7465   0.367   1.100   4.225
  873SOL    HW1 7466   0.360   1.183   4.169
  873SOL    HW2 7467   0.371   1.020   4.165
  874SOL     OW 7468   0.566   0.537   4.589
  874SOL    HW1 7469   0.578   0.603   4.515
  874SOL    HW2 7470   0.612   0.571   4.672
  875SOL     OW 7471   1.252   1.348   4.112
  875SOL    HW1 7472   1.302   1.425   4.152
  875SOL    HW2 7473   1.157   1.350   4.144
  876SOL     OW 7474   1.272   1.445   4.866
  876SOL    HW1 7475   1.319   1.458   4.953
  876SOL    HW2 7476   1.206   1.371   4.875
  877SOL     OW 7477   1.582   0.639   4.196
  877SOL    HW1 7478   1.551   0.700   4.269
  877SOL    HW2 7479   1.632   0.691   4.127
  878SOL     OW 7480   0.354   1.510   5.053
  878SOL    HW1 7481   0.333   1.466   4.966
  878SOL    HW2 7482   0.451   1.536   5.056
  879SOL     OW 7483   1.587   0.779   5.394
  879SOL    HW1 7484   1.495   0.817   5.389
  879SOL    HW2 7485   1.647   0.826   5.329
  880SOL     OW 7486   1.013   0.105   5.494
  880SOL    HW1 7487   1.019   0.190   5.442
  880SOL    HW2 7488   1.045   0.029   5.437
  881SOL     OW 7489   0.504   0.050   5.464
  881SOL    HW1 7490   0.462  -0.007   5.394
  881SOL    HW2 7491   0.438   0.119   5.496
  882SOL     OW 7492   0.573   0.870   4.753
  882SOL    HW1 7493   0.617   0.959   4.744
  882SOL    HW2 7494   0.510   0.870   4.830
  883SOL     OW 7495   1.360   0.862   4.769
  883SOL    HW1 7496   1.285   0.862   4.703
  883SOL    HW2 7497   1.397   0.770   4.778
  884SOL     OW 7498   1.209   0.525   3.999
  884SOL    HW1 7499   1.222   0.441   4.053
  884SOL    HW2 7500   1.180   0.599   4.059
  885SOL     OW 7501   0.307   0.213   4.955
  885SOL    HW1 7502   0.284   0.250   5.045
  885SOL    HW2 7503   0.277   0.118   4.949
  886SOL     OW 7504   0.037   1.310   5.006
  886SOL    HW1 7505   0.090   1.261   5.074
  886SOL    HW2 7506   0.059   1.408   5.011
  887SOL     OW 7507   0.732   0.634   4.788
  887SOL    HW1 7508   0.791   0.608   4.712
  887SOL    HW2 7509   0.704   0.730   4.777
  888SOL     OW 7510   1.728   0.935   5.578
  888SOL    HW1 7511   1.682   0.928   5.489
  888SOL    HW2 7512   1.666   0.979   5.644
  889SOL     OW 7513   1.622   0.367   4.098
  889SOL    HW1 7514   1.624   0.291   4.162
  889SOL    HW2 7515   1.574   0.444   4.138
  890SOL     OW 7516   1.023   0.766   4.690
  890SOL    HW1 7517   1.038   0.787   4.786
  890SOL    HW2 7518   0.993   0.671   4.681
  891SOL     OW 7519   0.980   1.573   5.424
  891SOL    HW1 7520   0.960   1.617   5.336
  891SOL    HW2 7521   1.019   1.482   5.408
  892SOL     OW 7522   1.859   1.518   5.329
  892SOL    HW1 7523   1.873   1.545   5.234
  892SOL    HW2 7524   1.942   1.540   5.382
  893SOL     OW 7525   0.350   0.898   5.528
  893SOL    HW1 7526   0.426   0.942   5.576
  893SOL    HW2 7527   0.385   0.851   5.446
  894SOL     OW 7528   1.540   0.274   3.849
  894SOL    HW1 7529   1.479   0.199   3.872
  894SOL    HW2 7530   1.562   0.326   3.932
  895SOL     OW 7531   1.303   0.838   3.766
  895SOL    HW1 7532   1.337   0.745   3.781
  895SOL    HW2 7533   1.321   0.865   3.671
  896SOL     OW 7534   1.068   1.333   4.573
  896SOL    HW1 7535   1.075   1.249   4.518
  896SOL    HW2 7536   1.130   1.402   4.537
  897SOL     OW 7537   0.319   0.810   4.673
  897SOL    HW1 7538   0.412   0.846   4.678
  897SOL    HW2 7539   0.313   0.725   4.725
  898SOL     OW 7540   0.339   0.509   4.730
  898SOL    HW1 7541   0.287   0.426   4.713
  898SOL    HW2 7542   0.416   0.514   4.666
  899SOL     OW 7543   1.138   0.380   5.402
  899SOL    HW1 7544   1.093   0.443   5.466
  899SOL    HW2 7545   1.231   0.411   5.385
  900SOL     OW 7546   1.160   0.207   5.201
  900SOL    HW1 7547   1.160   0.271   5.278
  900SOL    HW2 7548   1.188   0.255   5.118
  901SOL     OW 7549   0.008   1.326   3.924
  901SOL    HW1 7550  -0.085   1.347   3.893
  901SOL    HW2 7551   0.018   1.227   3.937
  902SOL     OW 7552   1.002   0.796   4.962
  902SOL    HW1 7553   1.043   0.764   5.048
  902SOL    HW2 7554   0.906   0.769   4.959
  903SOL     OW 7555   0.040   0.544   4.838
  903SOL    HW1 7556   0.125   0.511   4.797
  903SOL    HW2 7557   0.053   0.559   4.936
  904SOL     OW 7558   1.369   0.950   5.384
  904SOL    HW1 7559   1.408   1.039   5.404
  904SOL    HW2 7560   1.379   0.930   5.287
  905SOL     OW 7561   0.815   0.572   4.049
  905SOL    HW1 7562   0.822   0.483   4.003
  905SOL    HW2 7563   0.721   0.606   4.041
  906SOL     OW 7564   1.657   0.604   4.930
  906SOL    HW1 7565   1.619   0.535   4.992
  906SOL    HW2 7566   1.739   0.568   4.886
  907SOL     OW 7567   0.252   1.564   5.468
  907SOL    HW1 7568   0.222   1.621   5.544
  907SOL    HW2 7569   0.245   1.467   5.494
  908SOL     OW 7570   0.671   0.464   4.993
  908SOL    HW1 7571   0.637   0.375   4.963
  908SOL    HW2 7572   0.697   0.518   4.913
  909SOL     OW 7573   0.930   1.678   5.189
  909SOL    HW1 7574   0.906   1.660   5.094
  909SOL    HW2 7575   0.960   1.772   5.199
  910SOL     OW 7576   0.473   0.500   3.915
  910SOL    HW1 7577   0.534   0.580   3.919
  910SOL    HW2 7578   0.378   0.531   3.922
  911SOL     OW 7579   0.159   1.137   5.190
  911SOL    HW1 7580   0.181   1.076   5.266
  911SOL    HW2 7581   0.169   1.088   5.104
  912SOL     OW 7582   1.347   1.059   4.958
  912SOL    HW1 7583   1.371   0.996   4.884
  912SOL    HW2 7584   1.257   1.099   4.940
  913SOL     OW 7585   1.302   0.855   4.033
  913SOL    HW1 7586   1.216   0.824   4.075
  913SOL    HW2 7587   1.298   0.841   3.934
  914SOL     OW 7588   1.759   1.747   4.878
  914SOL    HW1 7589   1.820   1.777   4.805
  914SOL    HW2 7590   1.721   1.658   4.856
  915SOL     OW 7591   1.252   1.731   4.852
  915SOL    HW1 7592   1.336   1.736   4.798
  915SOL    HW2 7593   1.229   1.635   4.870
  916SOL     OW 7594   0.083   1.258   4.746
  916SOL    HW1 7595   0.078   1.257   4.846
  916SOL    HW2 7596   0.000   1.217   4.708
  917SOL     OW 7597   0.688   1.662   5.440
  917SOL    HW1 7598   0.632   1.743   5.449
  917SOL    HW2 7599   0.740   1.666   5.354
  918SOL     OW 7600   1.726   0.135   4.247
  918SOL    HW1 7601   1.799   0.118   4.180
  918SOL    HW2 7602   1.695   0.048   4.285
  919SOL     OW 7603   1.388   1.573   4.201
  919SOL    HW1 7604   1.455   1.585   4.127
  919SOL    HW2 7605   1.348   1.662   4.224
  920SOL     OW 7606   0.130   1.794   5.575
  920SOL    HW1 7607   0.089   1.720   5.628
  920SOL    HW2 7608   0.194   1.845   5.633
  921SOL     OW 7609   1.280   0.927   4.396
  921SOL    HW1 7610   1.340   0.846   4.398
  921SOL    HW2 7611   1.320   0.996   4.336
  922SOL     OW 7612   0.830   1.273   5.146
  922SOL    HW1 7613   0.825   1.306   5.241
  922SOL    HW2 7614   0.744   1.292   5.100
  923SOL     OW 7615   0.672   1.616   3.878
  923SOL    HW1 7616   0.681   1.626   3.779
  923SOL    HW2 7617   0.632   1.527   3.899
  924SOL     OW 7618   1.650   1.720   5.118
  924SOL    HW1 7619   1.703   1.730   5.034
  924SOL    HW2 7620   1.623   1.810   5.152
  925SOL     OW 7621   1.194   1.612   3.755
  925SOL    HW1 7622   1.200   1.519   3.792
  925SOL    HW2 7623   1.135   1.612   3.675
  926SOL     OW 7624   0.822   1.002   5.096
  926SOL    HW1 7625   0.862   1.001   5.004
  926SOL    HW2 7626   0.832   1.094   5.136
  927SOL     OW 7627   1.504   1.607   3.768
  927SOL    HW1 7628   1.412   1.644   3.775
  927SOL    HW2 7629   1.542   1.627   3.678
  928SOL     OW 7630   0.372   1.288   5.214
  928SOL    HW1 7631   0.359   1.381   5.180
  928SOL    HW2 7632   0.288   1.236   5.201
  929SOL     OW 7633   1.614   1.292   5.013
  929SOL    HW1 7634   1.674   1.295   5.093
  929SOL    HW2 7635   1.539   1.356   5.026
  930SOL     OW 7636   1.039   1.098   4.420
  930SOL    HW1 7637   0.969   1.051   4.474
  930SOL    HW2 7638   1.098   1.030   4.377
  931SOL     OW 7639   1.014   0.236   4.695
  931SOL    HW1 7640   1.006   0.200   4.602
  931SOL    HW2 7641   1.012   0.160   4.760
  932SOL     OW 7642   0.590   1.487   4.215
  932SOL    HW1 7643   0.632   1.429   4.145
  932SOL    HW2 7644   0.546   1.566   4.171
  933SOL     OW 7645   1.709   0.385   5.105
  933SOL    HW1 7646   1.782   0.454   5.109
  933SOL    HW2 7647   1.737   0.310   5.046
  934SOL     OW 7648   0.105   1.013   5.450
  934SOL    HW1 7649   0.028   0.980   5.504
  934SOL    HW2 7650   0.190   0.983   5.492
  935SOL     OW 7651   0.672   0.203   5.213
  935SOL    HW1 7652   0.762   0.187   5.173
  935SOL    HW2 7653   0.680   0.208   5.312
  936SOL     OW 7654   0.075   0.345   3.757
  936SOL    HW1 7655  -0.017   0.317   3.728
  936SOL    HW2 7656   0.106   0.422   3.701
  937SOL     OW 7657   1.440   0.856   5.122
  937SOL    HW1 7658   1.383   0.908   5.059
  937SOL    HW2 7659   1.536   0.868   5.098
  938SOL     OW 7660   1.183   1.335   3.843
  938SOL    HW1 7661   1.084   1.324   3.845
  938SOL    HW2 7662   1.217   1.350   3.936
  939SOL     OW 7663   0.613   0.842   5.155
  939SOL    HW1 7664   0.669   0.923   5.138
  939SOL    HW2 7665   0.672   0.762   5.158
  940SOL     OW 7666   1.493   1.767   4.683
  940SOL    HW1 7667   1.526   1.831   4.614
  940SOL    HW2 7668   1.559   1.761   4.758
  941SOL     OW 7669   1.450   1.220   5.357
  941SOL    HW1 7670   1.441   1.210   5.456
  941SOL    HW2 7671   1.546   1.213   5.331
  942SOL     OW 7672   0.390   1.741   5.284
  942SOL    HW1 7673   0.299   1.782   5.282
  942SOL    HW2 7674   0.383   1.647   5.316
  943SOL     OW 7675   1.674   0.883   4.978
  943SOL    HW1 7676   1.647   0.794   4.941
  943SOL    HW2 7677   1.675   0.951   4.905
  944SOL     OW 7678   1.225   0.325   4.173
  944SOL    HW1 7679   1.290   0.251   4.162
  944SOL    HW2 7680   1.245   0.375   4.257
  945SOL     OW 7681   0.594   0.745   4.376
  945SOL    HW1 7682   0.644   0.830   4.357
  945SOL    HW2 7683   0.506   0.747   4.328
  946SOL     OW 7684   1.777   0.342   5.366
  946SOL    HW1 7685   1.760   0.373   5.272
  946SOL    HW2 7686   1.693   0.305   5.404
  947SOL     OW 7687   1.730   0.934   5.241
  947SOL    HW1 7688   1.768   1.025   5.256
  947SOL    HW2 7689   1.722   0.917   5.142
  948SOL     OW 7690   0.859   1.374   3.740
  948SOL    HW1 7691   0.813   1.389   3.828
  948SOL    HW2 7692   0.903   1.459   3.710
  949SOL     OW 7693   0.859   0.956   4.585
  949SOL    HW1 7694   0.913   0.887   4.633
  949SOL    HW2 7695   0.827   1.025   4.651
  950SOL     OW 7696   1.083   0.984   3.811
  950SOL    HW1 7697   1.060   1.037   3.729
  950SOL    HW2 7698   1.164   0.928   3.792
  951SOL     OW 7699   1.861   1.569   4.575
  951SOL    HW1 7700   1.790   1.557   4.505
  951SOL    HW2 7701   1.862   1.490   4.635
  952SOL     OW 7702   0.221   1.314   5.568
  952SOL    HW1 7703   0.156   1.241   5.547
  952SOL    HW2 7704   0.225   1.328   5.666
  953SOL     OW 7705   0.079   1.240   4.377
  953SOL    HW1 7706   0.078   1.193   4.465
  953SOL    HW2 7707   0.161   1.212   4.326
  954SOL     OW 7708   0.672   1.391   5.348
  954SOL    HW1 7709   0.594   1.341   5.386
  954SOL    HW2 7710   0.669   1.486   5.379
  955SOL     OW 7711   1.824   0.192   4.951
  955SOL    HW1 7712   1.820   0.102   4.995
  955SOL    HW2 7713   1.827   0.181   4.852
  956SOL     OW 7714   0.428   0.424   4.244
  956SOL    HW1 7715   0.458   0.352   4.182
  956SOL    HW2 7716   0.389   0.384   4.327
  957SOL     OW 7717   1.705   1.487   4.828
  957SOL    HW1 7718   1.612   1.462   4.801
  957SOL    HW2 7719   1.731   1.437   4.910
  958SOL     OW 7720   0.812   1.586   4.411
  958SOL    HW1 7721   0.844   1.596   4.317
  958SOL    HW2 7722   0.733   1.524   4.413
  959SOL     OW 7723   1.424   0.214   4.836
  959SOL    HW1 7724   1.476   0.149   4.891
  959SOL    HW2 7725   1.375   0.277   4.897
  960SOL     OW 7726   1.001   0.034   4.878
  960SOL    HW1 7727   0.938  -0.038   4.847
  960SOL    HW2 7728   1.094  -0.002   4.878
  961SOL     OW 7729   0.770   1.330   4.025
  961SOL    HW1 7730   0.724   1.243   4.042
  961SOL    HW2 7731   0.861   1.327   4.066
  962SOL     OW 7732   1.352   0.052   3.892
  962SOL    HW1 7733   1.387   0.011   3.808
  962SOL    HW2 7734   1.262   0.014   3.912
  963SOL     OW 7735   1.300   0.453   4.415
  963SOL    HW1 7736   1.241   0.533   4.419
  963SOL    HW2 7737   1.315   0.418   4.508
  964SOL     OW 7738   1.593   0.221   4.606
  964SOL    HW1 7739   1.509   0.220   4.660
  964SOL    HW2 7740   1.595   0.304   4.550
  965SOL     OW 7741   0.039   1.077   4.024
  965SOL    HW1 7742   0.138   1.066   4.015
  965SOL    HW2 7743  -0.001   0.991   4.056
  966SOL     OW 7744   0.875   1.646   4.061
  966SOL    HW1 7745   0.798   1.611   4.007
  966SOL    HW2 7746   0.843   1.717   4.123
  967SOL     OW 7747   0.225   0.275   6.582
  967SOL    HW1 7748   0.260   0.258   6.674
  967SOL    HW2 7749   0.137   0.230   6.570
  968SOL     OW 7750   0.019   0.368   6.233
  968SOL    HW1 7751  -0.063   0.411   6.272
  968SOL    HW2 7752  -0.009   0.295   6.170
  969SOL     OW 7753   0.569   1.275   6.751
  969SOL    HW1 7754   0.476   1.268   6.714
  969SOL    HW2 7755   0.580   1.364   6.795
  970SOL     OW 7756   1.555   1.511   6.289
  970SOL    HW1 7757   1.498   1.495   6.370
  970SOL    HW2 7758   1.496   1.521   6.209
  971SOL     OW 7759   1.135   0.703   6.303
  971SOL    HW1 7760   1.192   0.781   6.278
  971SOL    HW2 7761   1.075   0.729   6.379
  972SOL     OW 7762   1.755   0.607   5.817
  972SOL    HW1 7763   1.743   0.594   5.718
  972SOL    HW2 7764   1.725   0.526   5.866
  973SOL     OW 7765   0.768   1.144   6.609
  973SOL    HW1 7766   0.690   1.161   6.669
  973SOL    HW2 7767   0.802   1.231   6.573
  974SOL     OW 7768   0.685   1.012   6.251
  974SOL    HW1 7769   0.754   0.996   6.321
  974SOL    HW2 7770   0.612   1.069   6.289
  975SOL     OW 7771   0.686   1.161   7.389
  975SOL    HW1 7772   0.746   1.240   7.403
  975SOL    HW2 7773   0.600   1.192   7.348
  976SOL     OW 7774   0.335   1.435   6.647
  976SOL    HW1 7775   0.257   1.404   6.594
  976SOL    HW2 7776   0.393   1.493   6.590
  977SOL     OW 7777   0.438   0.392   7.085
  977SOL    HW1 7778   0.520   0.336   7.094
  977SOL    HW2 7779   0.357   0.334   7.089
  978SOL     OW 7780   1.603   0.447   6.323
  978SOL    HW1 7781   1.529   0.493   6.273
  978SOL    HW2 7782   1.654   0.515   6.376
  979SOL     OW 7783   0.231   1.713   6.069
  979SOL    HW1 7784   0.265   1.790   6.123
  979SOL    HW2 7785   0.275   1.713   5.979
  980SOL     OW 7786   1.127   1.341   7.276
  980SOL    HW1 7787   1.174   1.341   7.364
  980SOL    HW2 7788   1.079   1.254   7.265
  981SOL     OW 7789   0.230   1.434   6.124
  981SOL    HW1 7790   0.204   1.530   6.124
  981SOL    HW2 7791   0.159   1.380   6.169
  982SOL     OW 7792   0.240   1.091   6.472
  982SOL    HW1 7793   0.254   1.007   6.524
  982SOL    HW2 7794   0.185   1.155   6.527
  983SOL     OW 7795   0.620   1.786   7.025
  983SOL    HW1 7796   0.528   1.769   7.060
  983SOL    HW2 7797   0.648   1.878   7.051
  984SOL     OW 7798   0.606   0.964   5.709
  984SOL    HW1 7799   0.613   1.048   5.655
  984SOL    HW2 7800   0.652   0.977   5.797
  985SOL     OW 7801   1.842   1.767   5.945
  985SOL    HW1 7802   1.896   1.738   6.025
  985SOL    HW2 7803   1.872   1.857   5.916
  986SOL     OW 7804   0.027   1.596   5.703
  986SOL    HW1 7805   0.008   1.500   5.724
  986SOL    HW2 7806  -0.006   1.654   5.778
  987SOL     OW 7807   1.689   0.922   6.198
  987SOL    HW1 7808   1.784   0.893   6.206
  987SOL    HW2 7809   1.681   0.987   6.123
  988SOL     OW 7810   1.641   1.108   6.018
  988SOL    HW1 7811   1.727   1.110   5.966
  988SOL    HW2 7812   1.655   1.155   6.106
  989SOL     OW 7813   0.113   0.737   7.183
  989SOL    HW1 7814   0.201   0.724   7.228
  989SOL    HW2 7815   0.100   0.834   7.161
  990SOL     OW 7816   1.293   1.228   7.009
  990SOL    HW1 7817   1.330   1.155   6.951
  990SOL    HW2 7818   1.345   1.233   7.094
  991SOL     OW 7819   0.809   0.004   6.088
  991SOL    HW1 7820   0.849   0.095   6.079
  991SOL    HW2 7821   0.709   0.012   6.094
  992SOL     OW 7822   0.197   0.976   6.850
  992SOL    HW1 7823   0.286   0.931   6.836
  992SOL    HW2 7824   0.124   0.911   6.831
  993SOL     OW 7825   1.525   0.999   5.776
  993SOL    HW1 7826   1.462   0.923   5.789
  993SOL    HW2 7827   1.573   1.017   5.862
  994SOL     OW 7828   0.317   0.251   7.387
  994SOL    HW1 7829   0.388   0.322   7.393
  994SOL    HW2 7830   0.229   0.290   7.415
  995SOL     OW 7831   1.466   1.417   6.539
  995SOL    HW1 7832   1.407   1.423   6.619
  995SOL    HW2 7833   1.451   1.329   6.493
  996SOL     OW 7834   1.667   1.714   6.158
  996SOL    HW1 7835   1.626   1.691   6.070
  996SOL    HW2 7836   1.649   1.640   6.223
  997SOL     OW 7837   0.598   0.729   5.856
  997SOL    HW1 7838   0.622   0.798   5.788
  997SOL    HW2 7839   0.520   0.762   5.910
  998SOL     OW 7840   1.281   0.345   6.530
  998SOL    HW1 7841   1.195   0.295   6.517
  998SOL    HW2 7842   1.343   0.291   6.586
  999SOL     OW 7843   1.576   1.662   5.893
  999SOL    HW1 7844   1.665   1.708   5.896
  999SOL    HW2 7845   1.555   1.638   5.798
 1000SOL     OW 7846   0.807   0.605   7.051
 1000SOL    HW1 7847   0.760   0.602   7.140
 1000SOL    HW2 7848   0.756   0.550   6.985
 1001SOL     OW 7849   1.394   0.469   7.260
 1001SOL    HW1 7850   1.374   0.512   7.348
 1001SOL    HW2 7851   1.472   0.407   7.269
 1002SOL     OW 7852   0.973   0.890   7.158
 1002SOL    HW1 7853   1.019   0.806   7.129
 1002SOL    HW2 7854   0.917   0.924   7.083
 1003SOL     OW 7855   0.991   0.410   6.828
 1003SOL    HW1 7856   0.914   0.444   6.882
 1003SOL    HW2 7857   0.957   0.359   6.749
 1004SOL     OW 7858   1.041   0.701   6.015
 1004SOL    HW1 7859   1.067   0.697   6.111
 1004SOL    HW2 7860   0.956   0.650   6.001
 1005SOL     OW 7861   0.130   1.821   7.157
 1005SOL    HW1 7862   0.120   1.806   7.256
 1005SOL    HW2 7863   0.044   1.857   7.121
 1006SOL     OW 7864   0.865   0.348   5.781
 1006SOL    HW1 7865   0.924   0.411   5.732
 1006SOL    HW2 7866   0.884   0.254   5.752
 1007SOL     OW 7867   1.362   1.144   6.131
 1007SOL    HW1 7868   1.445   1.115   6.083
 1007SOL    HW2 7869   1.313   1.211   6.075
 1008SOL     OW 7870   0.550   0.196   6.471
 1008SOL    HW1 7871   0.545   0.191   6.571
 1008SOL    HW2 7872   0.552   0.292   6.442
 1009SOL     OW 7873   1.008   1.456   6.063
 1009SOL    HW1 7874   0.962   1.528   6.011
 1009SOL    HW2 7875   1.004   1.476   6.161
 1010SOL     OW 7876   0.351   1.801   6.439
 1010SOL    HW1 7877   0.401   1.715   6.445
 1010SOL    HW2 7878   0.416   1.878   6.436
 1011SOL     OW 7879   1.795   1.066   6.459
 1011SOL    HW1 7880   1.733   1.051   6.383
 1011SOL    HW2 7881   1.743   1.077   6.544
 1012SOL     OW 7882   0.321   0.943   5.828
 1012SOL    HW1 7883   0.403   0.982   5.786
 1012SOL    HW2 7884   0.294   0.861   5.779
 1013SOL     OW 7885   1.458   0.735   6.314
 1013SOL    HW1 7886   1.453   0.670   6.389
 1013SOL    HW2 7887   1.538   0.794   6.327
 1014SOL     OW 7888   0.461   1.266   7.313
 1014SOL    HW1 7889   0.411   1.267   7.227
 1014SOL    HW2 7890   0.398   1.248   7.389
 1015SOL     OW 7891   1.111   1.776   5.823
 1015SOL    HW1 7892   1.051   1.714   5.873
 1015SOL    HW2 7893   1.142   1.732   5.738
 1016SOL     OW 7894   0.202   0.285   7.084
 1016SOL    HW1 7895   0.122   0.345   7.071
 1016SOL    HW2 7896   0.192   0.236   7.170
 1017SOL     OW 7897   1.632   1.377   5.667
 1017SOL    HW1 7898   1.600   1.471   5.657
 1017SOL    HW2 7899   1.556   1.314   5.655
 1018SOL     OW 7900   0.464   1.743   5.909
 1018SOL    HW1 7901   0.497   1.782   5.995
 1018SOL    HW2 7902   0.540   1.736   5.844
 1019SOL     OW 7903   1.400   0.107   6.012
 1019SOL    HW1 7904   1.376   0.070   5.922
 1019SOL    HW2 7905   1.499   0.123   6.016
 1020SOL     OW 7906   0.249   1.785   6.827
 1020SOL    HW1 7907   0.306   1.720   6.877
 1020SOL    HW2 7908   0.233   1.752   6.734
 1021SOL     OW 7909   0.940   1.698   6.490
 1021SOL    HW1 7910   1.020   1.641   6.511
 1021SOL    HW2 7911   0.891   1.658   6.413
 1022SOL     OW 7912   0.382   0.700   6.066
 1022SOL    HW1 7913   0.427   0.610   6.063
 1022SOL    HW2 7914   0.288   0.689   6.099
 1023SOL     OW 7915   1.547   0.222   7.315
 1023SOL    HW1 7916   1.542   0.259   7.407
 1023SOL    HW2 7917   1.475   0.153   7.303
 1024SOL     OW 7918   0.614   0.122   5.703
 1024SOL    HW1 7919   0.712   0.100   5.710
 1024SOL    HW2 7920   0.583   0.105   5.610
 1025SOL     OW 7921   0.781   0.264   7.335
 1025SOL    HW1 7922   0.848   0.203   7.378
 1025SOL    HW2 7923   0.708   0.283   7.400
 1026SOL     OW 7924   0.888   1.514   6.781
 1026SOL    HW1 7925   0.865   1.489   6.687
 1026SOL    HW2 7926   0.949   1.445   6.820
 1027SOL     OW 7927   1.351   0.590   7.019
 1027SOL    HW1 7928   1.379   0.547   7.104
 1027SOL    HW2 7929   1.376   0.686   7.020
 1028SOL     OW 7930   0.803   1.402   6.510
 1028SOL    HW1 7931   0.893   1.416   6.468
 1028SOL    HW2 7932   0.732   1.404   6.439
 1029SOL     OW 7933   0.922   0.503   6.485
 1029SOL    HW1 7934   0.897   0.494   6.389
 1029SOL    HW2 7935   0.970   0.421   6.516
 1030SOL     OW 7936   0.539   0.064   6.098
 1030SOL    HW1 7937   0.458   0.065   6.156
 1030SOL    HW2 7938   0.542   0.147   6.043
 1031SOL     OW 7939   1.434   1.188   5.627
 1031SOL    HW1 7940   1.466   1.112   5.684
 1031SOL    HW2 7941   1.342   1.215   5.657
 1032SOL     OW 7942   0.935   0.236   6.066
 1032SOL    HW1 7943   0.887   0.277   5.988
 1032SOL    HW2 7944   1.034   0.234   6.047
 1033SOL     OW 7945   1.076   0.683   7.050
 1033SOL    HW1 7946   0.996   0.622   7.053
 1033SOL    HW2 7947   1.157   0.630   7.026
 1034SOL     OW 7948   1.227   1.570   6.379
 1034SOL    HW1 7949   1.248   1.644   6.314
 1034SOL    HW2 7950   1.295   1.570   6.452
 1035SOL     OW 7951   1.271   1.797   6.177
 1035SOL    HW1 7952   1.315   1.861   6.113
 1035SOL    HW2 7953   1.221   1.849   6.247
 1036SOL     OW 7954   1.032   0.549   5.602
 1036SOL    HW1 7955   0.991   0.631   5.563
 1036SOL    HW2 7956   1.096   0.575   5.675
 1037SOL     OW 7957   0.078   0.556   6.972
 1037SOL    HW1 7958   0.170   0.555   6.931
 1037SOL    HW2 7959   0.072   0.630   7.039
 1038SOL     OW 7960   0.561   0.222   6.733
 1038SOL    HW1 7961   0.599   0.138   6.770
 1038SOL    HW2 7962   0.473   0.241   6.777
 1039SOL     OW 7963   0.866   0.454   6.228
 1039SOL    HW1 7964   0.834   0.526   6.166
 1039SOL    HW2 7965   0.890   0.373   6.175
 1040SOL     OW 7966   1.017   0.039   6.339
 1040SOL    HW1 7967   0.945   0.044   6.270
 1040SOL    HW2 7968   0.993  -0.030   6.408
 1041SOL     OW 7969   1.429   1.173   6.453
 1041SOL    HW1 7970   1.374   1.089   6.446
 1041SOL    HW2 7971   1.455   1.202   6.361
 1042SOL     OW 7972   1.466   0.590   6.578
 1042SOL    HW1 7973   1.436   0.495   6.585
 1042SOL    HW2 7974   1.539   0.606   6.644
 1043SOL     OW 7975   1.857   0.833   5.963
 1043SOL    HW1 7976   1.899   0.769   6.027
 1043SOL    HW2 7977   1.819   0.782   5.885
 1044SOL     OW 7978   0.488   1.385   5.760
 1044SOL    HW1 7979   0.401   1.370   5.807
 1044SOL    HW2 7980   0.471   1.411   5.665
 1045SOL     OW 7981   1.664   1.280   6.243
 1045SOL    HW1 7982   1.763   1.288   6.257
 1045SOL    HW2 7983   1.619   1.364   6.274
 1046SOL     OW 7984   1.390   0.575   5.664
 1046SOL    HW1 7985   1.336   0.554   5.745
 1046SOL    HW2 7986   1.481   0.534   5.673
 1047SOL     OW 7987   0.527   0.256   5.914
 1047SOL    HW1 7988   0.554   0.197   5.839
 1047SOL    HW2 7989   0.527   0.351   5.883
 1048SOL     OW 7990   1.754   1.223   7.174
 1048SOL    HW1 7991   1.845   1.184   7.161
 1048SOL    HW2 7992   1.762   1.319   7.198
 1049SOL     OW 7993   1.064   1.347   6.926
 1049SOL    HW1 7994   0.984   1.324   6.981
 1049SOL    HW2 7995   1.147   1.321   6.975
 1050SOL     OW 7996   1.111   1.195   6.686
 1050SOL    HW1 7997   1.071   1.239   6.767
 1050SOL    HW2 7998   1.070   1.232   6.603
 1051SOL     OW 7999   1.638   1.099   6.665
 1051SOL    HW1 8000   1.643   1.180   6.724
 1051SOL    HW2 8001   1.552   1.101   6.614
 1052SOL     OW 8002   0.915   0.089   6.988
 1052SOL    HW1 8003   0.940   0.069   6.893
 1052SOL    HW2 8004   0.987   0.145   7.030
 1053SOL     OW 8005   0.980   1.116   7.305
 1053SOL    HW1 8006   0.881   1.122   7.315
 1053SOL    HW2 8007   1.003   1.036   7.249
 1054SOL     OW 8008   0.705   1.050   5.954
 1054SOL    HW1 8009   0.691   1.057   6.053
 1054SOL    HW2 8010   0.789   0.999   5.936
 1055SOL     OW 8011   0.410   0.813   6.837
 1055SOL    HW1 8012   0.496   0.825   6.887
 1055SOL    HW2 8013   0.368   0.726   6.864
 1056SOL     OW 8014   1.274   0.386   6.848
 1056SOL    HW1 8015   1.295   0.460   6.912
 1056SOL    HW2 8016   1.185   0.403   6.805
 1057SOL     OW 8017   0.064   1.564   6.917
 1057SOL    HW1 8018   0.018   1.646   6.883
 1057SOL    HW2 8019   0.162   1.583   6.926
 1058SOL     OW 8020   0.566   0.537   6.451
 1058SOL    HW1 8021   0.578   0.603   6.377
 1058SOL    HW2 8022   0.612   0.571   6.534
 1059SOL     OW 8023   1.252   1.348   5.974
 1059SOL    HW1 8024   1.302   1.425   6.014
 1059SOL    HW2 8025   1.157   1.350   6.006
 1060SOL     OW 8026   1.582   0.639   6.058
 1060SOL    HW1 8027   1.551   0.700   6.131
 1060SOL    HW2 8028   1.632   0.691   5.989
 1061SOL     OW 8029   0.354   1.510   6.915
 1061SOL    HW1 8030   0.333   1.466   6.828
 1061SOL    HW2 8031   0.451   1.536   6.918
 1062SOL     OW 8032   0.402   0.751   7.184
 1062SOL    HW1 8033   0.470   0.806   7.137
 1062SOL    HW2 8034   0.442   0.663   7.211
 1063SOL     OW 8035   1.587   0.779   7.256
 1063SOL    HW1 8036   1.495   0.817   7.251
 1063SOL    HW2 8037   1.647   0.826   7.191
 1064SOL     OW 8038   1.013   0.105   7.356
 1064SOL    HW1 8039   1.019   0.190   7.304
 1064SOL    HW2 8040   1.045   0.029   7.299
 1065SOL     OW 8041   0.504   0.050   7.326
 1065SOL    HW1 8042   0.462  -0.007   7.256
 1065SOL    HW2 8043   0.438   0.119   7.358
 1066SOL     OW 8044   0.573   0.870   6.615
 1066SOL    HW1 8045   0.617   0.959   6.606
 1066SOL    HW2 8046   0.510   0.870   6.692
 1067SOL     OW 8047   1.360   0.862   6.631
 1067SOL    HW1 8048   1.285   0.862   6.565
 1067SOL    HW2 8049   1.397   0.770   6.640
 1068SOL     OW 8050   1.209   0.525   5.861
 1068SOL    HW1 8051   1.222   0.441   5.915
 1068SOL    HW2 8052   1.180   0.599   5.921
 1069SOL     OW 8053   0.307   0.213   6.817
 1069SOL    HW1 8054   0.284   0.250   6.907
 1069SOL    HW2 8055   0.277   0.118   6.811
 1070SOL     OW 8056   0.037   1.310   6.868
 1070SOL    HW1 8057   0.090   1.261   6.936
 1070SOL    HW2 8058   0.059   1.408   6.873
 1071SOL     OW 8059   0.732   0.634   6.650
 1071SOL    HW1 8060   0.791   0.608   6.574
 1071SOL    HW2 8061   0.704   0.730   6.639
 1072SOL     OW 8062   1.728   0.935   7.440
 1072SOL    HW1 8063   1.682   0.928   7.351
 1072SOL    HW2 8064   1.666   0.979   7.506
 1073SOL     OW 8065   0.307   0.063   6.204
 1073SOL    HW1 8066   0.296   0.157   6.237
 1073SOL    HW2 8067   0.302   0.000   6.281
 1074SOL     OW 8068   1.622   0.367   5.960
 1074SOL    HW1 8069   1.624   0.291   6.024
 1074SOL    HW2 8070   1.574   0.444   6.000
 1075SOL     OW 8071   1.023   0.766   6.552
 1075SOL    HW1 8072   1.038   0.787   6.648
 1075SOL    HW2 8073   0.993   0.671   6.543
 1076SOL     OW 8074   0.350   0.898   7.390
 1076SOL    HW1 8075   0.426   0.942   7.438
 1076SOL    HW2 8076   0.385   0.851   7.308
 1077SOL     OW 8077   1.540   0.274   5.711
 1077SOL    HW1 8078   1.479   0.199   5.734
 1077SOL    HW2 8079   1.562   0.326   5.794
 1078SOL     OW 8080   1.303   0.838   5.628
 1078SOL    HW1 8081   1.337   0.745   5.643
 1078SOL    HW2 8082   1.321   0.865   5.533
 1079SOL     OW 8083   1.068   1.333   6.435
 1079SOL    HW1 8084   1.075   1.249   6.380
 1079SOL    HW2 8085   1.130   1.402   6.399
 1080SOL     OW 8086   1.138   0.380   7.264
 1080SOL    HW1 8087   1.093   0.443   7.328
 1080SOL    HW2 8088   1.231   0.411   7.247
 1081SOL     OW 8089   1.160   0.207   7.063
 1081SOL    HW1 8090   1.160   0.271   7.140
 1081SOL    HW2 8091   1.188   0.255   6.980
 1082SOL     OW 8092   0.008   1.326   5.786
 1082SOL    HW1 8093  -0.085   1.347   5.755
 1082SOL    HW2 8094   0.018   1.227   5.799
 1083SOL     OW 8095   0.088   1.801   6.513
 1083SOL    HW1 8096   0.046   1.715   6.486
 1083SOL    HW2 8097   0.182   1.804   6.479
 1084SOL     OW 8098   0.504   1.568   6.496
 1084SOL    HW1 8099   0.570   1.642   6.505
 1084SOL    HW2 8100   0.548   1.489   6.454
 1085SOL     OW 8101   1.002   0.796   6.824
 1085SOL    HW1 8102   1.043   0.764   6.910
 1085SOL    HW2 8103   0.906   0.769   6.821
 1086SOL     OW 8104   0.189   0.520   7.308
 1086SOL    HW1 8105   0.248   0.480   7.238
 1086SOL    HW2 8106   0.131   0.591   7.267
 1087SOL     OW 8107   1.369   0.950   7.246
 1087SOL    HW1 8108   1.408   1.039   7.266
 1087SOL    HW2 8109   1.379   0.930   7.149
 1088SOL     OW 8110   0.815   0.572   5.911
 1088SOL    HW1 8111   0.822   0.483   5.865
 1088SOL    HW2 8112   0.721   0.606   5.903
 1089SOL     OW 8113   0.252   1.564   7.330
 1089SOL    HW1 8114   0.222   1.621   7.406
 1089SOL    HW2 8115   0.245   1.467   7.356
 1090SOL     OW 8116   0.671   0.464   6.855
 1090SOL    HW1 8117   0.637   0.375   6.825
 1090SOL    HW2 8118   0.697   0.518   6.775
 1091SOL     OW 8119   0.159   1.137   7.052
 1091SOL    HW1 8120   0.181   1.076   7.128
 1091SOL    HW2 8121   0.169   1.088   6.966
 1092SOL     OW 8122   1.347   1.059   6.820
 1092SOL    HW1 8123   1.371   0.996   6.746
 1092SOL    HW2 8124   1.257   1.099   6.802
 1093SOL     OW 8125   1.302   0.855   5.895
 1093SOL    HW1 8126   1.216   0.824   5.937
 1093SOL    HW2 8127   1.298   0.841   5.796
 1094SOL     OW 8128   0.083   1.258   6.608
 1094SOL    HW1 8129   0.078   1.257   6.708
 1094SOL    HW2 8130   0.000   1.217   6.570
 1095SOL     OW 8131   0.688   1.662   7.302
 1095SOL    HW1 8132   0.632   1.743   7.311
 1095SOL    HW2 8133   0.740   1.666   7.216
 1096SOL     OW 8134   1.726   0.135   6.109
 1096SOL    HW1 8135   1.799   0.118   6.042
 1096SOL    HW2 8136   1.695   0.048   6.147
 1097SOL     OW 8137   1.388   1.573   6.063
 1097SOL    HW1 8138   1.455   1.585   5.989
 1097SOL    HW2 8139   1.348   1.662   6.086
 1098SOL     OW 8140   1.280   0.927   6.258
 1098SOL    HW1 8141   1.340   0.846   6.260
 1098SOL    HW2 8142   1.320   0.996   6.198
 1099SOL     OW 8143   0.830   1.273   7.008
 1099SOL    HW1 8144   0.825   1.306   7.103
 1099SOL    HW2 8145   0.744   1.292   6.962
 1100SOL     OW 8146   0.672   1.616   5.740
 1100SOL    HW1 8147   0.681   1.626   5.641
 1100SOL    HW2 8148   0.632   1.527   5.761
 1101SOL     OW 8149   1.841   0.175   6.549
 1101SOL    HW1 8150   1.880   0.090   6.513
 1101SOL    HW2 8151   1.743   0.177   6.530
 1102SOL     OW 8152   0.263   0.326   6.306
 1102SOL    HW1 8153   0.184   0.377   6.272
 1102SOL    HW2 8154   0.254   0.311   6.404
 1103SOL     OW 8155   1.194   1.612   5.617
 1103SOL    HW1 8156   1.200   1.519   5.654
 1103SOL    HW2 8157   1.135   1.612   5.537
 1104SOL     OW 8158   0.822   1.002   6.958
 1104SOL    HW1 8159   0.862   1.001   6.866
 1104SOL    HW2 8160   0.832   1.094   6.998
 1105SOL     OW 8161   0.916   0.910   5.877
 1105SOL    HW1 8162   0.979   0.948   5.809
 1105SOL    HW2 8163   0.956   0.827   5.916
 1106SOL     OW 8164   1.504   1.607   5.630
 1106SOL    HW1 8165   1.412   1.644   5.637
 1106SOL    HW2 8166   1.542   1.627   5.540
 1107SOL     OW 8167   0.372   1.288   7.076
 1107SOL    HW1 8168   0.359   1.381   7.042
 1107SOL    HW2 8169   0.288   1.236   7.063
 1108SOL     OW 8170   1.039   1.098   6.282
 1108SOL    HW1 8171   0.969   1.051   6.336
 1108SOL    HW2 8172   1.098   1.030   6.239
 1109SOL     OW 8173   1.014   0.236   6.557
 1109SOL    HW1 8174   1.006   0.200   6.464
 1109SOL    HW2 8175   1.012   0.160   6.622
 1110SOL     OW 8176   1.709   0.385   6.967
 1110SOL    HW1 8177   1.782   0.454   6.971
 1110SOL    HW2 8178   1.737   0.310   6.908
 1111SOL     OW 8179   0.672   0.203   7.075
 1111SOL    HW1 8180   0.762   0.187   7.035
 1111SOL    HW2 8181   0.680   0.208   7.174
 1112SOL     OW 8182   1.440   0.856   6.984
 1112SOL    HW1 8183   1.383   0.908   6.921
 1112SOL    HW2 8184   1.536   0.868   6.960
 1113SOL     OW 8185   1.183   1.335   5.705
 1113SOL    HW1 8186   1.084   1.324   5.707
 1113SOL    HW2 8187   1.217   1.350   5.798
 1114SOL     OW 8188   0.613   0.842   7.017
 1114SOL    HW1 8189   0.669   0.923   7.000
 1114SOL    HW2 8190   0.672   0.762   7.020
 1115SOL     OW 8191   1.493   1.767   6.545
 1115SOL    HW1 8192   1.526   1.831   6.476
 1115SOL    HW2 8193   1.559   1.761   6.620
 1116SOL     OW 8194   0.716   0.565   7.294
 1116SOL    HW1 8195   0.735   0.630   7.368
 1116SOL    HW2 8196   0.776   0.485   7.303
 1117SOL     OW 8197   1.450   1.220   7.219
 1117SOL    HW1 8198   1.441   1.210   7.318
 1117SOL    HW2 8199   1.546   1.213   7.193
 1118SOL     OW 8200   0.390   1.741   7.146
 1118SOL    HW1 8201   0.299   1.782   7.144
 1118SOL    HW2 8202   0.383   1.647   7.178
 1119SOL     OW 8203   1.225   0.325   6.035
 1119SOL    HW1 8204   1.290   0.251   6.024
 1119SOL    HW2 8205   1.245   0.375   6.119
 1120SOL     OW 8206   0.594   0.745   6.238
 1120SOL    HW1 8207   0.644   0.830   6.219
 1120SOL    HW2 8208   0.506   0.747   6.190
 1121SOL     OW 8209   1.777   0.342   7.228
 1121SOL    HW1 8210   1.760   0.373   7.134
 1121SOL    HW2 8211   1.693   0.305   7.266
 1122SOL     OW 8212   1.730   0.934   7.103
 1122SOL    HW1 8213   1.768   1.025   7.118
 1122SOL    HW2 8214   1.722   0.917   7.004
 1123SOL     OW 8215   0.859   1.374   5.602
 1123SOL    HW1 8216   0.813   1.389   5.690
 1123SOL    HW2 8217   0.903   1.459   5.572
 1124SOL     OW 8218   0.661   1.790   6.539
 1124SOL    HW1 8219   0.615   1.878   6.526
 1124SOL    HW2 8220   0.760   1.802   6.532
 1125SOL     OW 8221   0.859   0.956   6.447
 1125SOL    HW1 8222   0.913   0.887   6.495
 1125SOL    HW2 8223   0.827   1.025   6.513
 1126SOL     OW 8224   1.083   0.984   5.673
 1126SOL    HW1 8225   1.060   1.037   5.591
 1126SOL    HW2 8226   1.164   0.928   5.654
 1127SOL     OW 8227   1.861   1.569   6.437
 1127SOL    HW1 8228   1.790   1.557   6.367
 1127SOL    HW2 8229   1.862   1.490   6.497
 1128SOL     OW 8230   0.672   1.391   7.210
 1128SOL    HW1 8231   0.594   1.341   7.248
 1128SOL    HW2 8232   0.669   1.486   7.241
 1129SOL     OW 8233   1.824   0.192   6.813
 1129SOL    HW1 8234   1.820   0.102   6.857
 1129SOL    HW2 8235   1.827   0.181   6.714
 1130SOL     OW 8236   0.428   0.424   6.106
 1130SOL    HW1 8237   0.458   0.352   6.044
 1130SOL    HW2 8238   0.389   0.384   6.189
 1131SOL     OW 8239   0.317   0.547   6.866
 1131SOL    HW1 8240   0.355   0.488   6.938
 1131SOL    HW2 8241   0.357   0.521   6.778
 1132SOL     OW 8242   0.812   1.586   6.273
 1132SOL    HW1 8243   0.844   1.596   6.179
 1132SOL    HW2 8244   0.733   1.524   6.275
 1133SOL     OW 8245   1.424   0.214   6.698
 1133SOL    HW1 8246   1.476   0.149   6.753
 1133SOL    HW2 8247   1.375   0.277   6.759
 1134SOL     OW 8248   1.001   0.034   6.740
 1134SOL    HW1 8249   0.938  -0.038   6.709
 1134SOL    HW2 8250   1.094  -0.002   6.740
 1135SOL     OW 8251   0.618   1.567   6.870
 1135SOL    HW1 8252   0.613   1.649   6.927
 1135SOL    HW2 8253   0.707   1.564   6.825
 1136SOL     OW 8254   1.352   0.052   5.754
 1136SOL    HW1 8255   1.387   0.011   5.670
 1136SOL    HW2 8256   1.262   0.014   5.774
 1137SOL     OW 8257   1.300   0.453   6.277
 1137SOL    HW1 8258   1.241   0.533   6.281
 1137SOL    HW2 8259   1.315   0.418   6.370
 1138SOL     OW 8260   1.593   0.221   6.468
 1138SOL    HW1 8261   1.509   0.220   6.522
 1138SOL    HW2 8262   1.595   0.304   6.412
 1139SOL     OW 8263   0.039   1.077   5.886
 1139SOL    HW1 8264   0.138   1.066   5.877
 1139SOL    HW2 8265  -0.001   0.991   5.918
 1140SOL     OW 8266   0.875   1.646   5.923
 1140SOL    HW1 8267   0.798   1.611   5.869
 1140SOL    HW2 8268   0.843   1.717   5.985
 1141SOL     OW 8269   0.230   0.628   7.561
 1141SOL    HW1 8270   0.137   0.626   7.598
 1141SOL    HW2 8271   0.231   0.589   7.469
 1142SOL     OW 8272   0.225   0.275   8.444
 1142SOL    HW1 8273   0.260   0.258   8.536
 1142SOL    HW2 8274   0.137   0.230   8.432
 1143SOL     OW 8275   0.019   0.368   8.095
 1143SOL    HW1 8276  -0.063   0.411   8.134
 1143SOL    HW2 8277  -0.009   0.295   8.032
 1144SOL     OW 8278   0.569   1.275   8.613
 1144SOL    HW1 8279   0.476   1.268   8.576
 1144SOL    HW2 8280   0.580   1.364   8.657
 1145SOL     OW 8281   1.555   1.511   8.151
 1145SOL    HW1 8282   1.498   1.495   8.232
 1145SOL    HW2 8283   1.496   1.521   8.071
 1146SOL     OW 8284   1.135   0.703   8.165
 1146SOL    HW1 8285   1.192   0.781   8.140
 1146SOL    HW2 8286   1.075   0.729   8.241
 1147SOL     OW 8287   0.768   1.144   8.471
 1147SOL    HW1 8288   0.690   1.161   8.531
 1147SOL    HW2 8289   0.802   1.231   8.435
 1148SOL     OW 8290   0.850   0.798   9.271
 1148SOL    HW1 8291   0.846   0.874   9.336
 1148SOL    HW2 8292   0.872   0.834   9.180
 1149SOL     OW 8293   0.685   1.012   8.113
 1149SOL    HW1 8294   0.754   0.996   8.183
 1149SOL    HW2 8295   0.612   1.069   8.151
 1150SOL     OW 8296   0.686   1.161   9.251
 1150SOL    HW1 8297   0.746   1.240   9.265
 1150SOL    HW2 8298   0.600   1.192   9.210
 1151SOL     OW 8299   0.335   1.435   8.509
 1151SOL    HW1 8300   0.257   1.404   8.456
 1151SOL    HW2 8301   0.393   1.493   8.452
 1152SOL     OW 8302   1.460   1.505   8.787
 1152SOL    HW1 8303   1.484   1.599   8.813
 1152SOL    HW2 8304   1.444   1.451   8.869
 1153SOL     OW 8305   0.438   0.392   8.947
 1153SOL    HW1 8306   0.520   0.336   8.956
 1153SOL    HW2 8307   0.357   0.334   8.951
 1154SOL     OW 8308   1.127   1.341   9.138
 1154SOL    HW1 8309   1.174   1.341   9.226
 1154SOL    HW2 8310   1.079   1.254   9.127
 1155SOL     OW 8311   0.230   1.434   7.986
 1155SOL    HW1 8312   0.204   1.530   7.986
 1155SOL    HW2 8313   0.159   1.380   8.031
 1156SOL     OW 8314   0.240   1.091   8.334
 1156SOL    HW1 8315   0.254   1.007   8.386
 1156SOL    HW2 8316   0.185   1.155   8.389
 1157SOL     OW 8317   0.620   1.786   8.887
 1157SOL    HW1 8318   0.528   1.769   8.922
 1157SOL    HW2 8319   0.648   1.878   8.913
 1158SOL     OW 8320   0.606   0.964   7.571
 1158SOL    HW1 8321   0.613   1.048   7.517
 1158SOL    HW2 8322   0.652   0.977   7.659
 1159SOL     OW 8323   1.594   0.114   8.928
 1159SOL    HW1 8324   1.576   0.181   8.856
 1159SOL    HW2 8325   1.591   0.160   9.017
 1160SOL     OW 8326   0.122   0.643   8.011
 1160SOL    HW1 8327   0.077   0.555   8.028
 1160SOL    HW2 8328   0.121   0.697   8.095
 1161SOL     OW 8329   1.842   1.767   7.807
 1161SOL    HW1 8330   1.896   1.738   7.887
 1161SOL    HW2 8331   1.872   1.857   7.778
 1162SOL     OW 8332   0.113   0.737   9.045
 1162SOL    HW1 8333   0.201   0.724   9.090
 1162SOL    HW2 8334   0.100   0.834   9.023
 1163SOL     OW 8335   0.613   1.365   8.174
 1163SOL    HW1 8336   0.564   1.278   8.183
 1163SOL    HW2 8337   0.590   1.408   8.087
 1164SOL     OW 8338   1.293   1.228   8.871
 1164SOL    HW1 8339   1.330   1.155   8.813
 1164SOL    HW2 8340   1.345   1.233   8.956
 1165SOL     OW 8341   0.809   0.004   7.950
 1165SOL    HW1 8342   0.849   0.095   7.941
 1165SOL    HW2 8343   0.709   0.012   7.956
 1166SOL     OW 8344   0.197   0.976   8.712
 1166SOL    HW1 8345   0.286   0.931   8.698
 1166SOL    HW2 8346   0.124   0.911   8.693
 1167SOL     OW 8347   1.525   0.999   7.638
 1167SOL    HW1 8348   1.462   0.923   7.651
 1167SOL    HW2 8349   1.573   1.017   7.724
 1168SOL     OW 8350   1.187   1.792   9.064
 1168SOL    HW1 8351   1.211   1.852   8.988
 1168SOL    HW2 8352   1.194   1.697   9.034
 1169SOL     OW 8353   0.317   0.251   9.249
 1169SOL    HW1 8354   0.388   0.322   9.255
 1169SOL    HW2 8355   0.229   0.290   9.277
 1170SOL     OW 8356   1.466   1.417   8.401
 1170SOL    HW1 8357   1.407   1.423   8.481
 1170SOL    HW2 8358   1.451   1.329   8.355
 1171SOL     OW 8359   1.667   1.714   8.020
 1171SOL    HW1 8360   1.626   1.691   7.932
 1171SOL    HW2 8361   1.649   1.640   8.085
 1172SOL     OW 8362   0.598   0.729   7.718
 1172SOL    HW1 8363   0.622   0.798   7.650
 1172SOL    HW2 8364   0.520   0.762   7.772
 1173SOL     OW 8365   1.281   0.345   8.392
 1173SOL    HW1 8366   1.195   0.295   8.379
 1173SOL    HW2 8367   1.343   0.291   8.448
 1174SOL     OW 8368   1.576   1.662   7.755
 1174SOL    HW1 8369   1.665   1.708   7.758
 1174SOL    HW2 8370   1.555   1.638   7.660
 1175SOL     OW 8371   0.807   0.605   8.913
 1175SOL    HW1 8372   0.760   0.602   9.002
 1175SOL    HW2 8373   0.756   0.550   8.847
 1176SOL     OW 8374   1.394   0.469   9.122
 1176SOL    HW1 8375   1.374   0.512   9.210
 1176SOL    HW2 8376   1.472   0.407   9.131
 1177SOL     OW 8377   0.973   0.890   9.020
 1177SOL    HW1 8378   1.019   0.806   8.991
 1177SOL    HW2 8379   0.917   0.924   8.945
 1178SOL     OW 8380   0.991   0.410   8.690
 1178SOL    HW1 8381   0.914   0.444   8.744
 1178SOL    HW2 8382   0.957   0.359   8.611
 1179SOL     OW 8383   1.041   0.701   7.877
 1179SOL    HW1 8384   1.067   0.697   7.973
 1179SOL    HW2 8385   0.956   0.650   7.863
 1180SOL     OW 8386   0.076   0.811   8.237
 1180SOL    HW1 8387   0.175   0.799   8.246
 1180SOL    HW2 8388   0.052   0.906   8.258
 1181SOL     OW 8389   0.130   1.821   9.019
 1181SOL    HW1 8390   0.120   1.806   9.118
 1181SOL    HW2 8391   0.044   1.857   8.983
 1182SOL     OW 8392   0.865   0.348   7.643
 1182SOL    HW1 8393   0.924   0.411   7.594
 1182SOL    HW2 8394   0.884   0.254   7.614
 1183SOL     OW 8395   1.719   0.585   9.279
 1183SOL    HW1 8396   1.693   0.674   9.243
 1183SOL    HW2 8397   1.717   0.517   9.206
 1184SOL     OW 8398   0.550   0.196   8.333
 1184SOL    HW1 8399   0.545   0.191   8.433
 1184SOL    HW2 8400   0.552   0.292   8.304
 1185SOL     OW 8401   1.008   1.456   7.925
 1185SOL    HW1 8402   0.962   1.528   7.873
 1185SOL    HW2 8403   1.004   1.476   8.023
 1186SOL     OW 8404   0.351   1.801   8.301
 1186SOL    HW1 8405   0.401   1.715   8.307
 1186SOL    HW2 8406   0.416   1.878   8.298
 1187SOL     OW 8407   1.227   1.550   8.954
 1187SOL    HW1 8408   1.233   1.473   9.018
 1187SOL    HW2 8409   1.175   1.524   8.874
 1188SOL     OW 8410   0.321   0.943   7.690
 1188SOL    HW1 8411   0.403   0.982   7.648
 1188SOL    HW2 8412   0.294   0.861   7.641
 1189SOL     OW 8413   0.461   1.266   9.175
 1189SOL    HW1 8414   0.411   1.267   9.089
 1189SOL    HW2 8415   0.398   1.248   9.251
 1190SOL     OW 8416   1.111   1.776   7.685
 1190SOL    HW1 8417   1.051   1.714   7.735
 1190SOL    HW2 8418   1.142   1.732   7.600
 1191SOL     OW 8419   0.202   0.285   8.946
 1191SOL    HW1 8420   0.122   0.345   8.933
 1191SOL    HW2 8421   0.192   0.236   9.032
 1192SOL     OW 8422   1.632   1.377   7.529
 1192SOL    HW1 8423   1.600   1.471   7.519
 1192SOL    HW2 8424   1.556   1.314   7.517
 1193SOL     OW 8425   0.464   1.743   7.771
 1193SOL    HW1 8426   0.497   1.782   7.857
 1193SOL    HW2 8427   0.540   1.736   7.706
 1194SOL     OW 8428   1.400   0.107   7.874
 1194SOL    HW1 8429   1.376   0.070   7.784
 1194SOL    HW2 8430   1.499   0.123   7.878
 1195SOL     OW 8431   0.249   1.785   8.689
 1195SOL    HW1 8432   0.306   1.720   8.739
 1195SOL    HW2 8433   0.233   1.752   8.596
 1196SOL     OW 8434   0.940   1.698   8.352
 1196SOL    HW1 8435   1.020   1.641   8.373
 1196SOL    HW2 8436   0.891   1.658   8.275
 1197SOL     OW 8437   0.382   0.700   7.928
 1197SOL    HW1 8438   0.427   0.610   7.925
 1197SOL    HW2 8439   0.288   0.689   7.961
 1198SOL     OW 8440   1.547   0.222   9.177
 1198SOL    HW1 8441   1.542   0.259   9.269
 1198SOL    HW2 8442   1.475   0.153   9.165
 1199SOL     OW 8443   0.614   0.122   7.565
 1199SOL    HW1 8444   0.712   0.100   7.572
 1199SOL    HW2 8445   0.583   0.105   7.472
 1200SOL     OW 8446   0.781   0.264   9.197
 1200SOL    HW1 8447   0.848   0.203   9.240
 1200SOL    HW2 8448   0.708   0.283   9.262
 1201SOL     OW 8449   0.888   1.514   8.643
 1201SOL    HW1 8450   0.865   1.489   8.549
 1201SOL    HW2 8451   0.949   1.445   8.682
 1202SOL     OW 8452   1.351   0.590   8.881
 1202SOL    HW1 8453   1.379   0.547   8.966
 1202SOL    HW2 8454   1.376   0.686   8.882
 1203SOL     OW 8455   0.803   1.402   8.372
 1203SOL    HW1 8456   0.893   1.416   8.330
 1203SOL    HW2 8457   0.732   1.404   8.301
 1204SOL     OW 8458   0.922   0.503   8.347
 1204SOL    HW1 8459   0.897   0.494   8.251
 1204SOL    HW2 8460   0.970   0.421   8.378
 1205SOL     OW 8461   0.539   0.064   7.960
 1205SOL    HW1 8462   0.458   0.065   8.018
 1205SOL    HW2 8463   0.542   0.147   7.905
 1206SOL     OW 8464   1.434   1.188   7.489
 1206SOL    HW1 8465   1.466   1.112   7.546
 1206SOL    HW2 8466   1.342   1.215   7.519
 1207SOL     OW 8467   0.297   0.035   7.619
 1207SOL    HW1 8468   0.346   0.119   7.598
 1207SOL    HW2 8469   0.359  -0.030   7.664
 1208SOL     OW 8470   0.935   0.236   7.928
 1208SOL    HW1 8471   0.887   0.277   7.850
 1208SOL    HW2 8472   1.034   0.234   7.909
 1209SOL     OW 8473   1.076   0.683   8.912
 1209SOL    HW1 8474   0.996   0.622   8.915
 1209SOL    HW2 8475   1.157   0.630   8.888
 1210SOL     OW 8476   1.227   1.570   8.241
 1210SOL    HW1 8477   1.248   1.644   8.176
 1210SOL    HW2 8478   1.295   1.570   8.314
 1211SOL     OW 8479   0.459   1.152   8.189
 1211SOL    HW1 8480   0.388   1.125   8.254
 1211SOL    HW2 8481   0.433   1.124   8.096
 1212SOL     OW 8482   1.271   1.797   8.039
 1212SOL    HW1 8483   1.315   1.861   7.975
 1212SOL    HW2 8484   1.221   1.849   8.109
 1213SOL     OW 8485   1.032   0.549   7.464
 1213SOL    HW1 8486   0.991   0.631   7.425
 1213SOL    HW2 8487   1.096   0.575   7.537
 1214SOL     OW 8488   0.078   0.556   8.834
 1214SOL    HW1 8489   0.170   0.555   8.793
 1214SOL    HW2 8490   0.072   0.630   8.901
 1215SOL     OW 8491   0.561   0.222   8.595
 1215SOL    HW1 8492   0.599   0.138   8.632
 1215SOL    HW2 8493   0.473   0.241   8.639
 1216SOL     OW 8494   0.866   0.454   8.090
 1216SOL    HW1 8495   0.834   0.526   8.028
 1216SOL    HW2 8496   0.890   0.373   8.037
 1217SOL     OW 8497   1.017   0.039   8.201
 1217SOL    HW1 8498   0.945   0.044   8.132
 1217SOL    HW2 8499   0.993  -0.030   8.270
 1218SOL     OW 8500   1.466   0.590   8.440
 1218SOL    HW1 8501   1.436   0.495   8.447
 1218SOL    HW2 8502   1.539   0.606   8.506
 1219SOL     OW 8503   1.857   0.833   7.825
 1219SOL    HW1 8504   1.899   0.769   7.889
 1219SOL    HW2 8505   1.819   0.782   7.747
 1220SOL     OW 8506   0.488   1.385   7.622
 1220SOL    HW1 8507   0.401   1.370   7.669
 1220SOL    HW2 8508   0.471   1.411   7.527
 1221SOL     OW 8509   1.390   0.575   7.526
 1221SOL    HW1 8510   1.336   0.554   7.607
 1221SOL    HW2 8511   1.481   0.534   7.535
 1222SOL     OW 8512   0.527   0.256   7.776
 1222SOL    HW1 8513   0.554   0.197   7.701
 1222SOL    HW2 8514   0.527   0.351   7.745
 1223SOL     OW 8515   1.754   1.223   9.036
 1223SOL    HW1 8516   1.845   1.184   9.023
 1223SOL    HW2 8517   1.762   1.319   9.060
 1224SOL     OW 8518   1.064   1.347   8.788
 1224SOL    HW1 8519   0.984   1.324   8.843
 1224SOL    HW2 8520   1.147   1.321   8.837
 1225SOL     OW 8521   1.592   1.629   9.073
 1225SOL    HW1 8522   1.619   1.663   8.983
 1225SOL    HW2 8523   1.671   1.591   9.119
 1226SOL     OW 8524   1.111   1.195   8.548
 1226SOL    HW1 8525   1.071   1.239   8.629
 1226SOL    HW2 8526   1.070   1.232   8.465
 1227SOL     OW 8527   1.638   1.099   8.527
 1227SOL    HW1 8528   1.643   1.180   8.586
 1227SOL    HW2 8529   1.552   1.101   8.476
 1228SOL     OW 8530   0.915   0.089   8.850
 1228SOL    HW1 8531   0.940   0.069   8.755
 1228SOL    HW2 8532   0.987   0.145   8.892
 1229SOL     OW 8533   0.980   1.116   9.167
 1229SOL    HW1 8534   0.881   1.122   9.177
 1229SOL    HW2 8535   1.003   1.036   9.111
 1230SOL     OW 8536   0.705   1.050   7.816
 1230SOL    HW1 8537   0.691   1.057   7.915
 1230SOL    HW2 8538   0.789   0.999   7.798
 1231SOL     OW 8539   0.410   0.813   8.699
 1231SOL    HW1 8540   0.496   0.825   8.749
 1231SOL    HW2 8541   0.368   0.726   8.726
 1232SOL     OW 8542   1.274   0.386   8.710
 1232SOL    HW1 8543   1.295   0.460   8.774
 1232SOL    HW2 8544   1.185   0.403   8.667
 1233SOL     OW 8545   0.064   1.564   8.779
 1233SOL    HW1 8546   0.018   1.646   8.745
 1233SOL    HW2 8547   0.162   1.583   8.788
 1234SOL     OW 8548   0.367   1.100   7.949
 1234SOL    HW1 8549   0.360   1.183   7.893
 1234SOL    HW2 8550   0.371   1.020   7.889
 1235SOL     OW 8551   0.566   0.537   8.313
 1235SOL    HW1 8552   0.578   0.603   8.239
 1235SOL    HW2 8553   0.612   0.571   8.396
 1236SOL     OW 8554   1.252   1.348   7.836
 1236SOL    HW1 8555   1.302   1.425   7.876
 1236SOL    HW2 8556   1.157   1.350   7.868
 1237SOL     OW 8557   1.272   1.445   8.590
 1237SOL    HW1 8558   1.319   1.458   8.677
 1237SOL    HW2 8559   1.206   1.371   8.599
 1238SOL     OW 8560   1.582   0.639   7.920
 1238SOL    HW1 8561   1.551   0.700   7.993
 1238SOL    HW2 8562   1.632   0.691   7.851
 1239SOL     OW 8563   0.354   1.510   8.777
 1239SOL    HW1 8564   0.333   1.466   8.690
 1239SOL    HW2 8565   0.451   1.536   8.780
 1240SOL     OW 8566   0.402   0.751   9.046
 1240SOL    HW1 8567   0.470   0.806   8.999
 1240SOL    HW2 8568   0.442   0.663   9.073
 1241SOL     OW 8569   1.587   0.779   9.118
 1241SOL    HW1 8570   1.495   0.817   9.113
 1241SOL    HW2 8571   1.647   0.826   9.053
 1242SOL     OW 8572   1.013   0.105   9.218
 1242SOL    HW1 8573   1.019   0.190   9.166
 1242SOL    HW2 8574   1.045   0.029   9.161
 1243SOL     OW 8575   0.504   0.050   9.188
 1243SOL    HW1 8576   0.462  -0.007   9.118
 1243SOL    HW2 8577   0.438   0.119   9.220
 1244SOL     OW 8578   0.573   0.870   8.477
 1244SOL    HW1 8579   0.617   0.959   8.468
 1244SOL    HW2 8580   0.510   0.870   8.554
 1245SOL     OW 8581   1.360   0.862   8.493
 1245SOL    HW1 8582   1.285   0.862   8.427
 1245SOL    HW2 8583   1.397   0.770   8.502
 1246SOL     OW 8584   1.209   0.525   7.723
 1246SOL    HW1 8585   1.222   0.441   7.777
 1246SOL    HW2 8586   1.180   0.599   7.783
 1247SOL     OW 8587   0.307   0.213   8.679
 1247SOL    HW1 8588   0.284   0.250   8.769
 1247SOL    HW2 8589   0.277   0.118   8.673
 1248SOL     OW 8590   0.732   0.634   8.512
 1248SOL    HW1 8591   0.791   0.608   8.436
 1248SOL    HW2 8592   0.704   0.730   8.501
 1249SOL     OW 8593   1.728   0.935   9.302
 1249SOL    HW1 8594   1.682   0.928   9.213
 1249SOL    HW2 8595   1.666   0.979   9.368
 1250SOL     OW 8596   0.307   0.063   8.066
 1250SOL    HW1 8597   0.296   0.157   8.099
 1250SOL    HW2 8598   0.302   0.000   8.143
 1251SOL     OW 8599   1.622   0.367   7.822
 1251SOL    HW1 8600   1.624   0.291   7.886
 1251SOL    HW2 8601   1.574   0.444   7.862
 1252SOL     OW 8602   1.023   0.766   8.414
 1252SOL    HW1 8603   1.038   0.787   8.510
 1252SOL    HW2 8604   0.993   0.671   8.405
 1253SOL     OW 8605   0.980   1.573   9.148
 1253SOL    HW1 8606   0.960   1.617   9.060
 1253SOL    HW2 8607   1.019   1.482   9.132
 1254SOL     OW 8608   1.859   1.518   9.053
 1254SOL    HW1 8609   1.873   1.545   8.958
 1254SOL    HW2 8610   1.942   1.540   9.106
 1255SOL     OW 8611   0.350   0.898   9.252
 1255SOL    HW1 8612   0.426   0.942   9.300
 1255SOL    HW2 8613   0.385   0.851   9.170
 1256SOL     OW 8614   1.540   0.274   7.573
 1256SOL    HW1 8615   1.479   0.199   7.596
 1256SOL    HW2 8616   1.562   0.326   7.656
 1257SOL     OW 8617   1.303   0.838   7.490
 1257SOL    HW1 8618   1.337   0.745   7.505
 1257SOL    HW2 8619   1.321   0.865   7.395
 1258SOL     OW 8620   1.068   1.333   8.297
 1258SOL    HW1 8621   1.075   1.249   8.242
 1258SOL    HW2 8622   1.130   1.402   8.261
 1259SOL     OW 8623   0.319   0.810   8.397
 1259SOL    HW1 8624   0.412   0.846   8.402
 1259SOL    HW2 8625   0.313   0.725   8.449
 1260SOL     OW 8626   0.339   0.509   8.454
 1260SOL    HW1 8627   0.287   0.426   8.437
 1260SOL    HW2 8628   0.416   0.514   8.390
 1261SOL     OW 8629   1.138   0.380   9.126
 1261SOL    HW1 8630   1.093   0.443   9.190
 1261SOL    HW2 8631   1.231   0.411   9.109
 1262SOL     OW 8632   1.160   0.207   8.925
 1262SOL    HW1 8633   1.160   0.271   9.002
 1262SOL    HW2 8634   1.188   0.255   8.842
 1263SOL     OW 8635   0.008   1.326   7.648
 1263SOL    HW1 8636  -0.085   1.347   7.617
 1263SOL    HW2 8637   0.018   1.227   7.661
 1264SOL     OW 8638   0.088   1.801   8.375
 1264SOL    HW1 8639   0.046   1.715   8.348
 1264SOL    HW2 8640   0.182   1.804   8.341
 1265SOL     OW 8641   0.504   1.568   8.358
 1265SOL    HW1 8642   0.570   1.642   8.367
 1265SOL    HW2 8643   0.548   1.489   8.316
 1266SOL     OW 8644   1.002   0.796   8.686
 1266SOL    HW1 8645   1.043   0.764   8.772
 1266SOL    HW2 8646   0.906   0.769   8.683
 1267SOL     OW 8647   0.040   0.544   8.562
 1267SOL    HW1 8648   0.125   0.511   8.521
 1267SOL    HW2 8649   0.053   0.559   8.660
 1268SOL     OW 8650   0.189   0.520   9.170
 1268SOL    HW1 8651   0.248   0.480   9.100
 1268SOL    HW2 8652   0.131   0.591   9.129
 1269SOL     OW 8653   1.369   0.950   9.108
 1269SOL    HW1 8654   1.408   1.039   9.128
 1269SOL    HW2 8655   1.379   0.930   9.011
 1270SOL     OW 8656   0.815   0.572   7.773
 1270SOL    HW1 8657   0.822   0.483   7.727
 1270SOL    HW2 8658   0.721   0.606   7.765
 1271SOL     OW 8659   1.657   0.604   8.654
 1271SOL    HW1 8660   1.619   0.535   8.716
 1271SOL    HW2 8661   1.739   0.568   8.610
 1272SOL     OW 8662   0.252   1.564   9.192
 1272SOL    HW1 8663   0.222   1.621   9.268
 1272SOL    HW2 8664   0.245   1.467   9.218
 1273SOL     OW 8665   0.671   0.464   8.717
 1273SOL    HW1 8666   0.637   0.375   8.687
 1273SOL    HW2 8667   0.697   0.518   8.637
 1274SOL     OW 8668   0.930   1.678   8.913
 1274SOL    HW1 8669   0.906   1.660   8.818
 1274SOL    HW2 8670   0.960   1.772   8.923
 1275SOL     OW 8671   0.473   0.500   7.639
 1275SOL    HW1 8672   0.534   0.580   7.643
 1275SOL    HW2 8673   0.378   0.531   7.646
 1276SOL     OW 8674   0.159   1.137   8.914
 1276SOL    HW1 8675   0.181   1.076   8.990
 1276SOL    HW2 8676   0.169   1.088   8.828
 1277SOL     OW 8677   1.347   1.059   8.682
 1277SOL    HW1 8678   1.371   0.996   8.608
 1277SOL    HW2 8679   1.257   1.099   8.664
 1278SOL     OW 8680   1.302   0.855   7.757
 1278SOL    HW1 8681   1.216   0.824   7.799
 1278SOL    HW2 8682   1.298   0.841   7.658
 1279SOL     OW 8683   1.759   1.747   8.602
 1279SOL    HW1 8684   1.820   1.777   8.529
 1279SOL    HW2 8685   1.721   1.658   8.580
 1280SOL     OW 8686   1.252   1.731   8.576
 1280SOL    HW1 8687   1.336   1.736   8.522
 1280SOL    HW2 8688   1.229   1.635   8.594
 1281SOL     OW 8689   0.083   1.258   8.470
 1281SOL    HW1 8690   0.078   1.257   8.570
 1281SOL    HW2 8691   0.000   1.217   8.432
 1282SOL     OW 8692   0.688   1.662   9.164
 1282SOL    HW1 8693   0.632   1.743   9.173
 1282SOL    HW2 8694   0.740   1.666   9.078
 1283SOL     OW 8695   1.726   0.135   7.971
 1283SOL    HW1 8696   1.799   0.118   7.904
 1283SOL    HW2 8697   1.695   0.048   8.009
 1284SOL     OW 8698   1.388   1.573   7.925
 1284SOL    HW1 8699   1.455   1.585   7.851
 1284SOL    HW2 8700   1.348   1.662   7.948
 1285SOL     OW 8701   0.130   1.794   9.299
 1285SOL    HW1 8702   0.089   1.720   9.352
 1285SOL    HW2 8703   0.194   1.845   9.357
 1286SOL     OW 8704   1.280   0.927   8.120
 1286SOL    HW1 8705   1.340   0.846   8.122
 1286SOL    HW2 8706   1.320   0.996   8.060
 1287SOL     OW 8707   0.830   1.273   8.870
 1287SOL    HW1 8708   0.825   1.306   8.965
 1287SOL    HW2 8709   0.744   1.292   8.824
 1288SOL     OW 8710   0.672   1.616   7.602
 1288SOL    HW1 8711   0.681   1.626   7.503
 1288SOL    HW2 8712   0.632   1.527   7.623
 1289SOL     OW 8713   1.650   1.720   8.842
 1289SOL    HW1 8714   1.703   1.730   8.758
 1289SOL    HW2 8715   1.623   1.810   8.876
 1290SOL     OW 8716   0.263   0.326   8.168
 1290SOL    HW1 8717   0.184   0.377   8.134
 1290SOL    HW2 8718   0.254   0.311   8.266
 1291SOL     OW 8719   1.194   1.612   7.479
 1291SOL    HW1 8720   1.200   1.519   7.516
 1291SOL    HW2 8721   1.135   1.612   7.399
 1292SOL     OW 8722   0.916   0.910   7.739
 1292SOL    HW1 8723   0.979   0.948   7.671
 1292SOL    HW2 8724   0.956   0.827   7.778
 1293SOL     OW 8725   1.504   1.607   7.492
 1293SOL    HW1 8726   1.412   1.644   7.499
 1293SOL    HW2 8727   1.542   1.627   7.402
 1294SOL     OW 8728   0.372   1.288   8.938
 1294SOL    HW1 8729   0.359   1.381   8.904
 1294SOL    HW2 8730   0.288   1.236   8.925
 1295SOL     OW 8731   1.614   1.292   8.737
 1295SOL    HW1 8732   1.674   1.295   8.817
 1295SOL    HW2 8733   1.539   1.356   8.750
 1296SOL     OW 8734   1.039   1.098   8.144
 1296SOL    HW1 8735   0.969   1.051   8.198
 1296SOL    HW2 8736   1.098   1.030   8.101
 1297SOL     OW 8737   1.014   0.236   8.419
 1297SOL    HW1 8738   1.006   0.200   8.326
 1297SOL    HW2 8739   1.012   0.160   8.484
 1298SOL     OW 8740   0.590   1.487   7.939
 1298SOL    HW1 8741   0.632   1.429   7.869
 1298SOL    HW2 8742   0.546   1.566   7.895
 1299SOL     OW 8743   1.709   0.385   8.829
 1299SOL    HW1 8744   1.782   0.454   8.833
 1299SOL    HW2 8745   1.737   0.310   8.770
 1300SOL     OW 8746   0.255   1.348   7.738
 1300SOL    HW1 8747   0.159   1.349   7.711
 1300SOL    HW2 8748   0.267   1.401   7.822
 1301SOL     OW 8749   0.105   1.013   9.174
 1301SOL    HW1 8750   0.028   0.980   9.228
 1301SOL    HW2 8751   0.190   0.983   9.216
 1302SOL     OW 8752   0.672   0.203   8.937
 1302SOL    HW1 8753   0.762   0.187   8.897
 1302SOL    HW2 8754   0.680   0.208   9.036
 1303SOL     OW 8755   0.075   0.345   7.481
 1303SOL    HW1 8756  -0.017   0.317   7.452
 1303SOL    HW2 8757   0.106   0.422   7.425
 1304SOL     OW 8758   1.440   0.856   8.846
 1304SOL    HW1 8759   1.383   0.908   8.783
 1304SOL    HW2 8760   1.536   0.868   8.822
 1305SOL     OW 8761   0.072   0.166   7.766
 1305SOL    HW1 8762   0.055   0.249   7.712
 1305SOL    HW2 8763   0.162   0.129   7.744
 1306SOL     OW 8764   1.183   1.335   7.567
 1306SOL    HW1 8765   1.084   1.324   7.569
 1306SOL    HW2 8766   1.217   1.350   7.660
 1307SOL     OW 8767   0.613   0.842   8.879
 1307SOL    HW1 8768   0.669   0.923   8.862
 1307SOL    HW2 8769   0.672   0.762   8.882
 1308SOL     OW 8770   1.493   1.767   8.407
 1308SOL    HW1 8771   1.526   1.831   8.338
 1308SOL    HW2 8772   1.559   1.761   8.482
 1309SOL     OW 8773   0.716   0.565   9.156
 1309SOL    HW1 8774   0.735   0.630   9.230
 1309SOL    HW2 8775   0.776   0.485   9.165
 1310SOL     OW 8776   1.450   1.220   9.081
 1310SOL    HW1 8777   1.441   1.210   9.180
 1310SOL    HW2 8778   1.546   1.213   9.055
 1311SOL     OW 8779   0.390   1.741   9.008
 1311SOL    HW1 8780   0.299   1.782   9.006
 1311SOL    HW2 8781   0.383   1.647   9.040
 1312SOL     OW 8782   1.674   0.883   8.702
 1312SOL    HW1 8783   1.647   0.794   8.665
 1312SOL    HW2 8784   1.675   0.951   8.629
 1313SOL     OW 8785   1.225   0.325   7.897
 1313SOL    HW1 8786   1.290   0.251   7.886
 1313SOL    HW2 8787   1.245   0.375   7.981
 1314SOL     OW 8788   0.594   0.745   8.100
 1314SOL    HW1 8789   0.644   0.830   8.081
 1314SOL    HW2 8790   0.506   0.747   8.052
 1315SOL     OW 8791   1.777   0.342   9.090
 1315SOL    HW1 8792   1.760   0.373   8.996
 1315SOL    HW2 8793   1.693   0.305   9.128
 1316SOL     OW 8794   1.730   0.934   8.965
 1316SOL    HW1 8795   1.768   1.025   8.980
 1316SOL    HW2 8796   1.722   0.917   8.866
 1317SOL     OW 8797   0.859   1.374   7.464
 1317SOL    HW1 8798   0.813   1.389   7.552
 1317SOL    HW2 8799   0.903   1.459   7.434
 1318SOL     OW 8800   0.661   1.790   8.401
 1318SOL    HW1 8801   0.615   1.878   8.388
 1318SOL    HW2 8802   0.760   1.802   8.394
 1319SOL     OW 8803   0.859   0.956   8.309
 1319SOL    HW1 8804   0.913   0.887   8.357
 1319SOL    HW2 8805   0.827   1.025   8.375
 1320SOL     OW 8806   1.083   0.984   7.535
 1320SOL    HW1 8807   1.060   1.037   7.453
 1320SOL    HW2 8808   1.164   0.928   7.516
 1321SOL     OW 8809   1.861   1.569   8.299
 1321SOL    HW1 8810   1.790   1.557   8.229
 1321SOL    HW2 8811   1.862   1.490   8.359
 1322SOL     OW 8812   0.221   1.314   9.292
 1322SOL    HW1 8813   0.156   1.241   9.271
 1322SOL    HW2 8814   0.225   1.328   9.390
 1323SOL     OW 8815   0.079   1.240   8.101
 1323SOL    HW1 8816   0.078   1.193   8.189
 1323SOL    HW2 8817   0.161   1.212   8.050
 1324SOL     OW 8818   0.672   1.391   9.072
 1324SOL    HW1 8819   0.594   1.341   9.110
 1324SOL    HW2 8820   0.669   1.486   9.103
 1325SOL     OW 8821   0.428   0.424   7.968
 1325SOL    HW1 8822   0.458   0.352   7.906
 1325SOL    HW2 8823   0.389   0.384   8.051
 1326SOL     OW 8824   1.705   1.487   8.552
 1326SOL    HW1 8825   1.612   1.462   8.525
 1326SOL    HW2 8826   1.731   1.437   8.634
 1327SOL     OW 8827   0.317   0.547   8.728
 1327SOL    HW1 8828   0.355   0.488   8.800
 1327SOL    HW2 8829   0.357   0.521   8.640
 1328SOL     OW 8830   0.812   1.586   8.135
 1328SOL    HW1 8831   0.844   1.596   8.041
 1328SOL    HW2 8832   0.733   1.524   8.137
 1329SOL     OW 8833   1.424   0.214   8.560
 1329SOL    HW1 8834   1.476   0.149   8.615
 1329SOL    HW2 8835   1.375   0.277   8.621
 1330SOL     OW 8836   1.001   0.034   8.602
 1330SOL    HW1 8837   0.938  -0.038   8.571
 1330SOL    HW2 8838   1.094  -0.002   8.602
 1331SOL     OW 8839   0.770   1.330   7.749
 1331SOL    HW1 8840   0.724   1.243   7.766
 1331SOL    HW2 8841   0.861   1.327   7.790
 1332SOL     OW 8842   0.618   1.567   8.732
 1332SOL    HW1 8843   0.613   1.649   8.789
 1332SOL    HW2 8844   0.707   1.564   8.687
 1333SOL     OW 8845   1.352   0.052   7.616
 1333SOL    HW1 8846   1.387   0.011   7.532
 1333SOL    HW2 8847   1.262   0.014   7.636
 1334SOL     OW 8848   1.300   0.453   8.139
 1334SOL    HW1 8849   1.241   0.533   8.143
 1334SOL    HW2 8850   1.315   0.418   8.232
 1335SOL     OW 8851   0.039   1.077   7.748
 1335SOL    HW1 8852   0.138   1.066   7.739
 1335SOL    HW2 8853  -0.001   0.991   7.780
 1336SOL     OW 8854   0.875   1.646   7.785
 1336SOL    HW1 8855   0.798   1.611   7.731
 1336SOL    HW2 8856   0.843   1.717   7.847
 1337SOL     OW 8857   0.230   0.628   9.423
 1337SOL    HW1 8858   0.137   0.626   9.460
 1337SOL    HW2 8859   0.231   0.589   9.331
 1338SOL     OW 8860   1.755   0.607   9.541
 1338SOL    HW1 8861   1.743   0.594   9.442
 1338SOL    HW2 8862   1.725   0.526   9.590
 1339SOL     OW 8863   0.231   1.713   9.793
 1339SOL    HW1 8864   0.265   1.790   9.847
 1339SOL    HW2 8865   0.275   1.713   9.703
 1340SOL     OW 8866   0.230   1.434   9.848
 1340SOL    HW1 8867   0.204   1.530   9.848
 1340SOL    HW2 8868   0.159   1.380   9.893
 1341SOL     OW 8869   0.606   0.964   9.433
 1341SOL    HW1 8870   0.613   1.048   9.379
 1341SOL    HW2 8871   0.652   0.977   9.521
 1342SOL     OW 8872   1.842   1.767   9.669
 1342SOL    HW1 8873   1.896   1.738   9.749
 1342SOL    HW2 8874   1.872   1.857   9.640
 1343SOL     OW 8875   0.027   1.596   9.427
 1343SOL    HW1 8876   0.008   1.500   9.448
 1343SOL    HW2 8877  -0.006   1.654   9.502
 1344SOL     OW 8878   1.689   0.922   9.922
 1344SOL    HW1 8879   1.784   0.893   9.930
 1344SOL    HW2 8880   1.681   0.987   9.847
 1345SOL     OW 8881   1.641   1.108   9.742
 1345SOL    HW1 8882   1.727   1.110   9.690
 1345SOL    HW2 8883   1.655   1.155   9.830
 1346SOL     OW 8884   0.613   1.365  10.036
 1346SOL    HW1 8885   0.564   1.278  10.045
 1346SOL    HW2 8886   0.590   1.408   9.949
 1347SOL     OW 8887   0.809   0.004   9.812
 1347SOL    HW1 8888   0.849   0.095   9.803
 1347SOL    HW2 8889   0.709   0.012   9.818
 1348SOL     OW 8890   1.525   0.999   9.500
 1348SOL    HW1 8891   1.462   0.923   9.513
 1348SOL    HW2 8892   1.573   1.017   9.586
 1349SOL     OW 8893   1.576   1.662   9.617
 1349SOL    HW1 8894   1.665   1.708   9.620
 1349SOL    HW2 8895   1.555   1.638   9.522
 1350SOL     OW 8896   0.076   0.811  10.099
 1350SOL    HW1 8897   0.175   0.799  10.108
 1350SOL    HW2 8898   0.052   0.906  10.120
 1351SOL     OW 8899   0.865   0.348   9.505
 1351SOL    HW1 8900   0.924   0.411   9.456
 1351SOL    HW2 8901   0.884   0.254   9.476
 1352SOL     OW 8902   1.362   1.144   9.855
 1352SOL    HW1 8903   1.445   1.115   9.807
 1352SOL    HW2 8904   1.313   1.211   9.799
 1353SOL     OW 8905   1.008   1.456   9.787
 1353SOL    HW1 8906   0.962   1.528   9.735
 1353SOL    HW2 8907   1.004   1.476   9.885
 1354SOL     OW 8908   0.351   1.801  10.163
 1354SOL    HW1 8909   0.401   1.715  10.169
 1354SOL    HW2 8910   0.416   1.878  10.160
 1355SOL     OW 8911   0.321   0.943   9.552
 1355SOL    HW1 8912   0.403   0.982   9.510
 1355SOL    HW2 8913   0.294   0.861   9.503
 1356SOL     OW 8914   1.111   1.776   9.547
 1356SOL    HW1 8915   1.051   1.714   9.597
 1356SOL    HW2 8916   1.142   1.732   9.462
 1357SOL     OW 8917   1.632   1.377   9.391
 1357SOL    HW1 8918   1.600   1.471   9.381
 1357SOL    HW2 8919   1.556   1.314   9.379
 1358SOL     OW 8920   0.464   1.743   9.633
 1358SOL    HW1 8921   0.497   1.782   9.719
 1358SOL    HW2 8922   0.540   1.736   9.568
 1359SOL     OW 8923   1.400   0.107   9.736
 1359SOL    HW1 8924   1.376   0.070   9.646
 1359SOL    HW2 8925   1.499   0.123   9.740
 1360SOL     OW 8926   0.614   0.122   9.427
 1360SOL    HW1 8927   0.712   0.100   9.434
 1360SOL    HW2 8928   0.583   0.105   9.334
 1361SOL     OW 8929   0.297   0.035   9.481
 1361SOL    HW1 8930   0.346   0.119   9.460
 1361SOL    HW2 8931   0.359  -0.030   9.526
 1362SOL     OW 8932   0.459   1.152  10.051
 1362SOL    HW1 8933   0.388   1.125  10.116
 1362SOL    HW2 8934   0.433   1.124   9.958
 1363SOL     OW 8935   1.271   1.797   9.901
 1363SOL    HW1 8936   1.315   1.861   9.837
 1363SOL    HW2 8937   1.221   1.849   9.971
 1364SOL     OW 8938   1.032   0.549   9.326
 1364SOL    HW1 8939   0.991   0.631   9.287
 1364SOL    HW2 8940   1.096   0.575   9.399
 1365SOL     OW 8941   1.857   0.833   9.687
 1365SOL    HW1 8942   1.899   0.769   9.751
 1365SOL    HW2 8943   1.819   0.782   9.609
 1366SOL     OW 8944   0.488   1.385   9.484
 1366SOL    HW1 8945   0.401   1.370   9.531
 1366SOL    HW2 8946   0.471   1.411   9.389
 1367SOL     OW 8947   1.390   0.575   9.388
 1367SOL    HW1 8948   1.336   0.554   9.469
 1367SOL    HW2 8949   1.481   0.534   9.397
 1368SOL     OW 8950   0.527   0.256   9.638
 1368SOL    HW1 8951   0.554   0.197   9.563
 1368SOL    HW2 8952   0.527   0.351   9.607
 1369SOL     OW 8953   0.705   1.050   9.678
 1369SOL    HW1 8954   0.691   1.057   9.777
 1369SOL    HW2 8955   0.789   0.999   9.660
 1370SOL     OW 8956   0.367   1.100   9.811
 1370SOL    HW1 8957   0.360   1.183   9.755
 1370SOL    HW2 8958   0.371   1.020   9.751
 1371SOL     OW 8959   1.252   1.348   9.698
 1371SOL    HW1 8960   1.302   1.425   9.738
 1371SOL    HW2 8961   1.157   1.350   9.730
 1372SOL     OW 8962   1.582   0.639   9.782
 1372SOL    HW1 8963   1.551   0.700   9.855
 1372SOL    HW2 8964   1.632   0.691   9.713
 1373SOL     OW 8965   1.209   0.525   9.585
 1373SOL    HW1 8966   1.222   0.441   9.639
 1373SOL    HW2 8967   1.180   0.599   9.645
 1374SOL     OW 8968   1.622   0.367   9.684
 1374SOL    HW1 8969   1.624   0.291   9.748
 1374SOL    HW2 8970   1.574   0.444   9.724
 1375SOL     OW 8971   1.540   0.274   9.435
 1375SOL    HW1 8972   1.479   0.199   9.458
 1375SOL    HW2 8973   1.562   0.326   9.518
 1376SOL     OW 8974   1.303   0.838   9.352
 1376SOL    HW1 8975   1.337   0.745   9.367
 1376SOL    HW2 8976   1.321   0.865   9.257
 1377SOL     OW 8977   0.008   1.326   9.510
 1377SOL    HW1 8978  -0.085   1.347   9.479
 1377SOL    HW2 8979   0.018   1.227   9.523
 1378SOL     OW 8980   0.473   0.500   9.501
 1378SOL    HW1 8981   0.534   0.580   9.505
 1378SOL    HW2 8982   0.378   0.531   9.508
 1379SOL     OW 8983   1.302   0.855   9.619
 1379SOL    HW1 8984   1.216   0.824   9.661
 1379SOL    HW2 8985   1.298   0.841   9.520
 1380SOL     OW 8986   1.726   0.135   9.833
 1380SOL    HW1 8987   1.799   0.118   9.766
 1380SOL    HW2 8988   1.695   0.048   9.871
 1381SOL     OW 8989   1.388   1.573   9.787
 1381SOL    HW1 8990   1.455   1.585   9.713
 1381SOL    HW2 8991   1.348   1.662   9.810
 1382SOL     OW 8992   0.672   1.616   9.464
 1382SOL    HW1 8993   0.681   1.626   9.365
 1382SOL    HW2 8994   0.632   1.527   9.485
 1383SOL     OW 8995   1.841   0.175  10.273
 1383SOL    HW1 8996   1.880   0.090  10.237
 1383SOL    HW2 8997   1.743   0.177  10.254
 1384SOL     OW 8998   1.194   1.612   9.341
 1384SOL    HW1 8999   1.200   1.519   9.378
 1384SOL    HW2 9000   1.135   1.612   9.261
 1385SOL     OW 9001   1.504   1.607   9.354
 1385SOL    HW1 9002   1.412   1.644   9.361
 1385SOL    HW2 9003   1.542   1.627   9.264
 1386SOL     OW 9004   0.590   1.487   9.801
 1386SOL    HW1 9005   0.632   1.429   9.731
 1386SOL    HW2 9006   0.546   1.566   9.757
 1387SOL     OW 9007   0.255   1.348   9.600
 1387SOL    HW1 9008   0.159   1.349   9.573
 1387SOL    HW2 9009   0.267   1.401   9.684
 1388SOL     OW 9010   0.075   0.345   9.343
 1388SOL    HW1 9011  -0.017   0.317   9.314
 1388SOL    HW2 9012   0.106   0.422   9.287
 1389SOL     OW 9013   1.183   1.335   9.429
 1389SOL    HW1 9014   1.084   1.324   9.431
 1389SOL    HW2 9015   1.217   1.350   9.522
 1390SOL     OW 9016   0.594   0.745   9.962
 1390SOL    HW1 9017   0.644   0.830   9.943
 1390SOL    HW2 9018   0.506   0.747   9.914
 1391SOL     OW 9019   0.859   1.374   9.326
 1391SOL    HW1 9020   0.813   1.389   9.414
 1391SOL    HW2 9021   0.903   1.459   9.296
 1392SOL     OW 9022   1.083   0.984   9.397
 1392SOL    HW1 9023   1.060   1.037   9.315
 1392SOL    HW2 9024   1.164   0.928   9.378
 1393SOL     OW 9025   0.079   1.240   9.963
 1393SOL    HW1 9026   0.078   1.193  10.051
 1393SOL    HW2 9027   0.161   1.212   9.912
 1394SOL     OW 9028   0.770   1.330   9.611
 1394SOL    HW1 9029   0.724   1.243   9.628
 1394SOL    HW2 9030   0.861   1.327   9.652
 1395SOL     OW 9031   1.352   0.052   9.478
 1395SOL    HW1 9032   1.387   0.011   9.394
 1395SOL    HW2 9033   1.262   0.014   9.498
 1396SOL     OW 9034   0.039   1.077   9.610
 1396SOL    HW1 9035   0.138   1.066   9.601
 1396SOL    HW2 9036  -0.001   0.991   9.642
 1397SOL     OW 9037   0.875   1.646   9.647
 1397SOL    HW1 9038   0.798   1.611   9.593
 1397SOL    HW2 9039   0.843   1.717   9.709
 1398SOL     OW 9040   0.230   2.490   0.113
 1398SOL    HW1 9041   0.137   2.488   0.150
 1398SOL    HW2 9042   0.231   2.451   0.021
 1399SOL     OW 9043   0.225   2.137   0.996
 1399SOL    HW1 9044   0.260   2.120   1.088
 1399SOL    HW2 9045   0.137   2.092   0.984
 1400SOL     OW 9046   0.569   3.137   1.165
 1400SOL    HW1 9047   0.476   3.130   1.128
 1400SOL    HW2 9048   0.580   3.226   1.209
 1401SOL     OW 9049   1.135   2.565   0.717
 1401SOL    HW1 9050   1.192   2.643   0.692
 1401SOL    HW2 9051   1.075   2.591   0.793
 1402SOL     OW 9052   1.755   2.469   0.231
 1402SOL    HW1 9053   1.743   2.456   0.132
 1402SOL    HW2 9054   1.725   2.388   0.280
 1403SOL     OW 9055   0.768   3.006   1.023
 1403SOL    HW1 9056   0.690   3.023   1.083
 1403SOL    HW2 9057   0.802   3.093   0.987
 1404SOL     OW 9058   0.850   2.660   1.823
 1404SOL    HW1 9059   0.846   2.736   1.888
 1404SOL    HW2 9060   0.872   2.696   1.732
 1405SOL     OW 9061   0.686   3.023   1.803
 1405SOL    HW1 9062   0.746   3.102   1.817
 1405SOL    HW2 9063   0.600   3.054   1.762
 1406SOL     OW 9064   0.335   3.297   1.061
 1406SOL    HW1 9065   0.257   3.266   1.008
 1406SOL    HW2 9066   0.393   3.355   1.004
 1407SOL     OW 9067   1.460   3.367   1.339
 1407SOL    HW1 9068   1.484   3.461   1.365
 1407SOL    HW2 9069   1.444   3.313   1.421
 1408SOL     OW 9070   0.438   2.254   1.499
 1408SOL    HW1 9071   0.520   2.198   1.508
 1408SOL    HW2 9072   0.357   2.196   1.503
 1409SOL     OW 9073   1.603   2.309   0.737
 1409SOL    HW1 9074   1.529   2.355   0.687
 1409SOL    HW2 9075   1.654   2.377   0.790
 1410SOL     OW 9076   0.231   3.575   0.483
 1410SOL    HW1 9077   0.265   3.652   0.537
 1410SOL    HW2 9078   0.275   3.575   0.393
 1411SOL     OW 9079   1.127   3.203   1.690
 1411SOL    HW1 9080   1.174   3.203   1.778
 1411SOL    HW2 9081   1.079   3.116   1.679
 1412SOL     OW 9082   0.230   3.296   0.538
 1412SOL    HW1 9083   0.204   3.392   0.538
 1412SOL    HW2 9084   0.159   3.242   0.583
 1413SOL     OW 9085   0.240   2.953   0.886
 1413SOL    HW1 9086   0.254   2.869   0.938
 1413SOL    HW2 9087   0.185   3.017   0.941
 1414SOL     OW 9088   0.620   3.648   1.439
 1414SOL    HW1 9089   0.528   3.631   1.474
 1414SOL    HW2 9090   0.648   3.740   1.465
 1415SOL     OW 9091   0.606   2.826   0.123
 1415SOL    HW1 9092   0.613   2.910   0.069
 1415SOL    HW2 9093   0.652   2.839   0.211
 1416SOL     OW 9094   1.594   1.976   1.480
 1416SOL    HW1 9095   1.576   2.043   1.408
 1416SOL    HW2 9096   1.591   2.022   1.569
 1417SOL     OW 9097   0.122   2.505   0.563
 1417SOL    HW1 9098   0.077   2.417   0.580
 1417SOL    HW2 9099   0.121   2.559   0.647
 1418SOL     OW 9100   0.027   3.458   0.117
 1418SOL    HW1 9101   0.008   3.362   0.138
 1418SOL    HW2 9102  -0.006   3.516   0.192
 1419SOL     OW 9103   1.689   2.784   0.612
 1419SOL    HW1 9104   1.784   2.755   0.620
 1419SOL    HW2 9105   1.681   2.849   0.537
 1420SOL     OW 9106   1.641   2.970   0.432
 1420SOL    HW1 9107   1.727   2.972   0.380
 1420SOL    HW2 9108   1.655   3.017   0.520
 1421SOL     OW 9109   0.113   2.599   1.597
 1421SOL    HW1 9110   0.201   2.586   1.642
 1421SOL    HW2 9111   0.100   2.696   1.575
 1422SOL     OW 9112   0.613   3.227   0.726
 1422SOL    HW1 9113   0.564   3.140   0.735
 1422SOL    HW2 9114   0.590   3.270   0.639
 1423SOL     OW 9115   1.293   3.090   1.423
 1423SOL    HW1 9116   1.330   3.017   1.365
 1423SOL    HW2 9117   1.345   3.095   1.508
 1424SOL     OW 9118   0.809   1.866   0.502
 1424SOL    HW1 9119   0.849   1.957   0.493
 1424SOL    HW2 9120   0.709   1.874   0.508
 1425SOL     OW 9121   0.197   2.838   1.264
 1425SOL    HW1 9122   0.286   2.793   1.250
 1425SOL    HW2 9123   0.124   2.773   1.245
 1426SOL     OW 9124   1.525   2.861   0.190
 1426SOL    HW1 9125   1.462   2.785   0.203
 1426SOL    HW2 9126   1.573   2.879   0.276
 1427SOL     OW 9127   1.187   3.654   1.616
 1427SOL    HW1 9128   1.211   3.714   1.540
 1427SOL    HW2 9129   1.194   3.559   1.586
 1428SOL     OW 9130   0.317   2.113   1.801
 1428SOL    HW1 9131   0.388   2.184   1.807
 1428SOL    HW2 9132   0.229   2.152   1.829
 1429SOL     OW 9133   1.466   3.279   0.953
 1429SOL    HW1 9134   1.407   3.285   1.033
 1429SOL    HW2 9135   1.451   3.191   0.907
 1430SOL     OW 9136   0.598   2.591   0.270
 1430SOL    HW1 9137   0.622   2.660   0.202
 1430SOL    HW2 9138   0.520   2.624   0.324
 1431SOL     OW 9139   1.394   2.331   1.674
 1431SOL    HW1 9140   1.374   2.374   1.762
 1431SOL    HW2 9141   1.472   2.269   1.683
 1432SOL     OW 9142   0.973   2.752   1.572
 1432SOL    HW1 9143   1.019   2.668   1.543
 1432SOL    HW2 9144   0.917   2.786   1.497
 1433SOL     OW 9145   1.041   2.563   0.429
 1433SOL    HW1 9146   1.067   2.559   0.525
 1433SOL    HW2 9147   0.956   2.512   0.415
 1434SOL     OW 9148   0.076   2.673   0.789
 1434SOL    HW1 9149   0.175   2.661   0.798
 1434SOL    HW2 9150   0.052   2.768   0.810
 1435SOL     OW 9151   0.865   2.210   0.195
 1435SOL    HW1 9152   0.924   2.273   0.146
 1435SOL    HW2 9153   0.884   2.116   0.166
 1436SOL     OW 9154   1.719   2.447   1.831
 1436SOL    HW1 9155   1.693   2.536   1.795
 1436SOL    HW2 9156   1.717   2.379   1.758
 1437SOL     OW 9157   1.362   3.006   0.545
 1437SOL    HW1 9158   1.445   2.977   0.497
 1437SOL    HW2 9159   1.313   3.073   0.489
 1438SOL     OW 9160   0.550   2.058   0.885
 1438SOL    HW1 9161   0.545   2.053   0.985
 1438SOL    HW2 9162   0.552   2.154   0.856
 1439SOL     OW 9163   1.008   3.318   0.477
 1439SOL    HW1 9164   0.962   3.390   0.425
 1439SOL    HW2 9165   1.004   3.338   0.575
 1440SOL     OW 9166   0.351   3.663   0.853
 1440SOL    HW1 9167   0.401   3.577   0.859
 1440SOL    HW2 9168   0.416   3.740   0.850
 1441SOL     OW 9169   1.795   2.928   0.873
 1441SOL    HW1 9170   1.733   2.913   0.797
 1441SOL    HW2 9171   1.743   2.939   0.958
 1442SOL     OW 9172   1.227   3.412   1.506
 1442SOL    HW1 9173   1.233   3.335   1.570
 1442SOL    HW2 9174   1.175   3.386   1.426
 1443SOL     OW 9175   0.321   2.805   0.242
 1443SOL    HW1 9176   0.403   2.844   0.200
 1443SOL    HW2 9177   0.294   2.723   0.193
 1444SOL     OW 9178   1.458   2.597   0.728
 1444SOL    HW1 9179   1.453   2.532   0.803
 1444SOL    HW2 9180   1.538   2.656   0.741
 1445SOL     OW 9181   0.461   3.128   1.727
 1445SOL    HW1 9182   0.411   3.129   1.641
 1445SOL    HW2 9183   0.398   3.110   1.803
 1446SOL     OW 9184   1.111   3.638   0.237
 1446SOL    HW1 9185   1.051   3.576   0.287
 1446SOL    HW2 9186   1.142   3.594   0.152
 1447SOL     OW 9187   0.202   2.147   1.498
 1447SOL    HW1 9188   0.122   2.207   1.485
 1447SOL    HW2 9189   0.192   2.098   1.584
 1448SOL     OW 9190   0.464   3.605   0.323
 1448SOL    HW1 9191   0.497   3.644   0.409
 1448SOL    HW2 9192   0.540   3.598   0.258
 1449SOL     OW 9193   1.400   1.969   0.426
 1449SOL    HW1 9194   1.376   1.932   0.336
 1449SOL    HW2 9195   1.499   1.985   0.430
 1450SOL     OW 9196   0.249   3.647   1.241
 1450SOL    HW1 9197   0.306   3.582   1.291
 1450SOL    HW2 9198   0.233   3.614   1.148
 1451SOL     OW 9199   0.940   3.560   0.904
 1451SOL    HW1 9200   1.020   3.503   0.925
 1451SOL    HW2 9201   0.891   3.520   0.827
 1452SOL     OW 9202   1.547   2.084   1.729
 1452SOL    HW1 9203   1.542   2.121   1.821
 1452SOL    HW2 9204   1.475   2.015   1.717
 1453SOL     OW 9205   0.614   1.984   0.117
 1453SOL    HW1 9206   0.712   1.962   0.124
 1453SOL    HW2 9207   0.583   1.967   0.024
 1454SOL     OW 9208   0.781   2.126   1.749
 1454SOL    HW1 9209   0.848   2.065   1.792
 1454SOL    HW2 9210   0.708   2.145   1.814
 1455SOL     OW 9211   0.888   3.376   1.195
 1455SOL    HW1 9212   0.865   3.351   1.101
 1455SOL    HW2 9213   0.949   3.307   1.234
 1456SOL     OW 9214   1.351   2.452   1.433
 1456SOL    HW1 9215   1.379   2.409   1.518
 1456SOL    HW2 9216   1.376   2.548   1.434
 1457SOL     OW 9217   0.803   3.264   0.924
 1457SOL    HW1 9218   0.893   3.278   0.882
 1457SOL    HW2 9219   0.732   3.266   0.853
 1458SOL     OW 9220   0.922   2.365   0.899
 1458SOL    HW1 9221   0.897   2.356   0.803
 1458SOL    HW2 9222   0.970   2.283   0.930
 1459SOL     OW 9223   0.539   1.926   0.512
 1459SOL    HW1 9224   0.458   1.927   0.570
 1459SOL    HW2 9225   0.542   2.009   0.457
 1460SOL     OW 9226   1.227   3.432   0.793
 1460SOL    HW1 9227   1.248   3.506   0.728
 1460SOL    HW2 9228   1.295   3.432   0.866
 1461SOL     OW 9229   0.459   3.014   0.741
 1461SOL    HW1 9230   0.388   2.987   0.806
 1461SOL    HW2 9231   0.433   2.986   0.648
 1462SOL     OW 9232   1.271   3.659   0.591
 1462SOL    HW1 9233   1.315   3.723   0.527
 1462SOL    HW2 9234   1.221   3.711   0.661
 1463SOL     OW 9235   1.032   2.411   0.016
 1463SOL    HW1 9236   0.991   2.493  -0.023
 1463SOL    HW2 9237   1.096   2.437   0.089
 1464SOL     OW 9238   0.078   2.418   1.386
 1464SOL    HW1 9239   0.170   2.417   1.345
 1464SOL    HW2 9240   0.072   2.492   1.453
 1465SOL     OW 9241   0.561   2.084   1.147
 1465SOL    HW1 9242   0.599   2.000   1.184
 1465SOL    HW2 9243   0.473   2.103   1.191
 1466SOL     OW 9244   0.866   2.316   0.642
 1466SOL    HW1 9245   0.834   2.388   0.580
 1466SOL    HW2 9246   0.890   2.235   0.589
 1467SOL     OW 9247   1.429   3.035   0.867
 1467SOL    HW1 9248   1.374   2.951   0.860
 1467SOL    HW2 9249   1.455   3.064   0.775
 1468SOL     OW 9250   1.466   2.452   0.992
 1468SOL    HW1 9251   1.436   2.357   0.999
 1468SOL    HW2 9252   1.539   2.468   1.058
 1469SOL     OW 9253   1.857   2.695   0.377
 1469SOL    HW1 9254   1.899   2.631   0.441
 1469SOL    HW2 9255   1.819   2.644   0.299
 1470SOL     OW 9256   0.488   3.247   0.174
 1470SOL    HW1 9257   0.401   3.232   0.221
 1470SOL    HW2 9258   0.471   3.273   0.079
 1471SOL     OW 9259   1.664   3.142   0.657
 1471SOL    HW1 9260   1.763   3.150   0.671
 1471SOL    HW2 9261   1.619   3.226   0.688
 1472SOL     OW 9262   1.390   2.437   0.078
 1472SOL    HW1 9263   1.336   2.416   0.159
 1472SOL    HW2 9264   1.481   2.396   0.087
 1473SOL     OW 9265   0.527   2.118   0.328
 1473SOL    HW1 9266   0.554   2.059   0.253
 1473SOL    HW2 9267   0.527   2.213   0.297
 1474SOL     OW 9268   1.754   3.085   1.588
 1474SOL    HW1 9269   1.845   3.046   1.575
 1474SOL    HW2 9270   1.762   3.181   1.612
 1475SOL     OW 9271   1.064   3.209   1.340
 1475SOL    HW1 9272   0.984   3.186   1.395
 1475SOL    HW2 9273   1.147   3.183   1.389
 1476SOL     OW 9274   1.111   3.057   1.100
 1476SOL    HW1 9275   1.071   3.101   1.181
 1476SOL    HW2 9276   1.070   3.094   1.017
 1477SOL     OW 9277   1.638   2.961   1.079
 1477SOL    HW1 9278   1.643   3.042   1.138
 1477SOL    HW2 9279   1.552   2.963   1.028
 1478SOL     OW 9280   0.915   1.951   1.402
 1478SOL    HW1 9281   0.940   1.931   1.307
 1478SOL    HW2 9282   0.987   2.007   1.444
 1479SOL     OW 9283   0.980   2.978   1.719
 1479SOL    HW1 9284   0.881   2.984   1.729
 1479SOL    HW2 9285   1.003   2.898   1.663
 1480SOL     OW 9286   0.705   2.912   0.368
 1480SOL    HW1 9287   0.691   2.919   0.467
 1480SOL    HW2 9288   0.789   2.861   0.350
 1481SOL     OW 9289   0.410   2.675   1.251
 1481SOL    HW1 9290   0.496   2.687   1.301
 1481SOL    HW2 9291   0.368   2.588   1.278
 1482SOL     OW 9292   0.064   3.426   1.331
 1482SOL    HW1 9293   0.018   3.508   1.297
 1482SOL    HW2 9294   0.162   3.445   1.340
 1483SOL     OW 9295   0.367   2.962   0.501
 1483SOL    HW1 9296   0.360   3.045   0.445
 1483SOL    HW2 9297   0.371   2.882   0.441
 1484SOL     OW 9298   0.566   2.399   0.865
 1484SOL    HW1 9299   0.578   2.465   0.791
 1484SOL    HW2 9300   0.612   2.433   0.948
 1485SOL     OW 9301   1.252   3.210   0.388
 1485SOL    HW1 9302   1.302   3.287   0.428
 1485SOL    HW2 9303   1.157   3.212   0.420
 1486SOL     OW 9304   1.272   3.307   1.142
 1486SOL    HW1 9305   1.319   3.320   1.229
 1486SOL    HW2 9306   1.206   3.233   1.151
 1487SOL     OW 9307   1.582   2.501   0.472
 1487SOL    HW1 9308   1.551   2.562   0.545
 1487SOL    HW2 9309   1.632   2.553   0.403
 1488SOL     OW 9310   0.354   3.372   1.329
 1488SOL    HW1 9311   0.333   3.328   1.242
 1488SOL    HW2 9312   0.451   3.398   1.332
 1489SOL     OW 9313   0.402   2.613   1.598
 1489SOL    HW1 9314   0.470   2.668   1.551
 1489SOL    HW2 9315   0.442   2.525   1.625
 1490SOL     OW 9316   1.587   2.641   1.670
 1490SOL    HW1 9317   1.495   2.679   1.665
 1490SOL    HW2 9318   1.647   2.688   1.605
 1491SOL     OW 9319   1.013   1.967   1.770
 1491SOL    HW1 9320   1.019   2.052   1.718
 1491SOL    HW2 9321   1.045   1.891   1.713
 1492SOL     OW 9322   0.504   1.912   1.740
 1492SOL    HW1 9323   0.462   1.855   1.670
 1492SOL    HW2 9324   0.438   1.981   1.772
 1493SOL     OW 9325   1.360   2.724   1.045
 1493SOL    HW1 9326   1.285   2.724   0.979
 1493SOL    HW2 9327   1.397   2.632   1.054
 1494SOL     OW 9328   1.209   2.387   0.275
 1494SOL    HW1 9329   1.222   2.303   0.329
 1494SOL    HW2 9330   1.180   2.461   0.335
 1495SOL     OW 9331   0.307   2.075   1.231
 1495SOL    HW1 9332   0.284   2.112   1.321
 1495SOL    HW2 9333   0.277   1.980   1.225
 1496SOL     OW 9334   0.037   3.172   1.282
 1496SOL    HW1 9335   0.090   3.123   1.350
 1496SOL    HW2 9336   0.059   3.270   1.287
 1497SOL     OW 9337   0.732   2.496   1.064
 1497SOL    HW1 9338   0.791   2.470   0.988
 1497SOL    HW2 9339   0.704   2.592   1.053
 1498SOL     OW 9340   1.728   2.797   1.854
 1498SOL    HW1 9341   1.682   2.790   1.765
 1498SOL    HW2 9342   1.666   2.841   1.920
 1499SOL     OW 9343   1.622   2.229   0.374
 1499SOL    HW1 9344   1.624   2.153   0.438
 1499SOL    HW2 9345   1.574   2.306   0.414
 1500SOL     OW 9346   1.023   2.628   0.966
 1500SOL    HW1 9347   1.038   2.649   1.062
 1500SOL    HW2 9348   0.993   2.533   0.957
 1501SOL     OW 9349   0.980   3.435   1.700
 1501SOL    HW1 9350   0.960   3.479   1.612
 1501SOL    HW2 9351   1.019   3.344   1.684
 1502SOL     OW 9352   0.350   2.760   1.804
 1502SOL    HW1 9353   0.426   2.804   1.852
 1502SOL    HW2 9354   0.385   2.713   1.722
 1503SOL     OW 9355   1.540   2.136   0.125
 1503SOL    HW1 9356   1.479   2.061   0.148
 1503SOL    HW2 9357   1.562   2.188   0.208
 1504SOL     OW 9358   1.303   2.700   0.042
 1504SOL    HW1 9359   1.337   2.607   0.057
 1504SOL    HW2 9360   1.321   2.727  -0.053
 1505SOL     OW 9361   1.068   3.195   0.849
 1505SOL    HW1 9362   1.075   3.111   0.794
 1505SOL    HW2 9363   1.130   3.264   0.813
 1506SOL     OW 9364   0.339   2.371   1.006
 1506SOL    HW1 9365   0.287   2.288   0.989
 1506SOL    HW2 9366   0.416   2.376   0.942
 1507SOL     OW 9367   1.138   2.242   1.678
 1507SOL    HW1 9368   1.093   2.305   1.742
 1507SOL    HW2 9369   1.231   2.273   1.661
 1508SOL     OW 9370   0.008   3.188   0.200
 1508SOL    HW1 9371  -0.085   3.209   0.169
 1508SOL    HW2 9372   0.018   3.089   0.213
 1509SOL     OW 9373   0.088   3.663   0.927
 1509SOL    HW1 9374   0.046   3.577   0.900
 1509SOL    HW2 9375   0.182   3.666   0.893
 1510SOL     OW 9376   0.504   3.430   0.910
 1510SOL    HW1 9377   0.570   3.504   0.919
 1510SOL    HW2 9378   0.548   3.351   0.868
 1511SOL     OW 9379   0.040   2.406   1.114
 1511SOL    HW1 9380   0.125   2.373   1.073
 1511SOL    HW2 9381   0.053   2.421   1.212
 1512SOL     OW 9382   0.189   2.382   1.722
 1512SOL    HW1 9383   0.248   2.342   1.652
 1512SOL    HW2 9384   0.131   2.453   1.681
 1513SOL     OW 9385   1.369   2.812   1.660
 1513SOL    HW1 9386   1.408   2.901   1.680
 1513SOL    HW2 9387   1.379   2.792   1.563
 1514SOL     OW 9388   0.815   2.434   0.325
 1514SOL    HW1 9389   0.822   2.345   0.279
 1514SOL    HW2 9390   0.721   2.468   0.317
 1515SOL     OW 9391   1.657   2.466   1.206
 1515SOL    HW1 9392   1.619   2.397   1.268
 1515SOL    HW2 9393   1.739   2.430   1.162
 1516SOL     OW 9394   0.252   3.426   1.744
 1516SOL    HW1 9395   0.222   3.483   1.820
 1516SOL    HW2 9396   0.245   3.329   1.770
 1517SOL     OW 9397   0.930   3.540   1.465
 1517SOL    HW1 9398   0.906   3.522   1.370
 1517SOL    HW2 9399   0.960   3.634   1.475
 1518SOL     OW 9400   0.473   2.362   0.191
 1518SOL    HW1 9401   0.534   2.442   0.195
 1518SOL    HW2 9402   0.378   2.393   0.198
 1519SOL     OW 9403   0.159   2.999   1.466
 1519SOL    HW1 9404   0.181   2.938   1.542
 1519SOL    HW2 9405   0.169   2.950   1.380
 1520SOL     OW 9406   1.347   2.921   1.234
 1520SOL    HW1 9407   1.371   2.858   1.160
 1520SOL    HW2 9408   1.257   2.961   1.216
 1521SOL     OW 9409   1.302   2.717   0.309
 1521SOL    HW1 9410   1.216   2.686   0.351
 1521SOL    HW2 9411   1.298   2.703   0.210
 1522SOL     OW 9412   1.252   3.593   1.128
 1522SOL    HW1 9413   1.336   3.598   1.074
 1522SOL    HW2 9414   1.229   3.497   1.146
 1523SOL     OW 9415   0.083   3.120   1.022
 1523SOL    HW1 9416   0.078   3.119   1.122
 1523SOL    HW2 9417   0.000   3.079   0.984
 1524SOL     OW 9418   0.688   3.524   1.716
 1524SOL    HW1 9419   0.632   3.605   1.725
 1524SOL    HW2 9420   0.740   3.528   1.630
 1525SOL     OW 9421   0.903   1.948   0.133
 1525SOL    HW1 9422   0.954   1.949   0.047
 1525SOL    HW2 9423   0.959   1.906   0.204
 1526SOL     OW 9424   1.726   1.997   0.523
 1526SOL    HW1 9425   1.799   1.980   0.456
 1526SOL    HW2 9426   1.695   1.910   0.561
 1527SOL     OW 9427   1.388   3.435   0.477
 1527SOL    HW1 9428   1.455   3.447   0.403
 1527SOL    HW2 9429   1.348   3.524   0.500
 1528SOL     OW 9430   1.280   2.789   0.672
 1528SOL    HW1 9431   1.340   2.708   0.674
 1528SOL    HW2 9432   1.320   2.858   0.612
 1529SOL     OW 9433   0.830   3.135   1.422
 1529SOL    HW1 9434   0.825   3.168   1.517
 1529SOL    HW2 9435   0.744   3.154   1.376
 1530SOL     OW 9436   0.672   3.478   0.154
 1530SOL    HW1 9437   0.681   3.488   0.055
 1530SOL    HW2 9438   0.632   3.389   0.175
 1531SOL     OW 9439   1.841   2.037   0.963
 1531SOL    HW1 9440   1.880   1.952   0.927
 1531SOL    HW2 9441   1.743   2.039   0.944
 1532SOL     OW 9442   0.263   2.188   0.720
 1532SOL    HW1 9443   0.184   2.239   0.686
 1532SOL    HW2 9444   0.254   2.173   0.818
 1533SOL     OW 9445   1.194   3.474   0.031
 1533SOL    HW1 9446   1.200   3.381   0.068
 1533SOL    HW2 9447   1.135   3.474  -0.049
 1534SOL     OW 9448   0.822   2.864   1.372
 1534SOL    HW1 9449   0.862   2.863   1.280
 1534SOL    HW2 9450   0.832   2.956   1.412
 1535SOL     OW 9451   1.504   3.469   0.044
 1535SOL    HW1 9452   1.412   3.506   0.051
 1535SOL    HW2 9453   1.542   3.489  -0.046
 1536SOL     OW 9454   0.372   3.150   1.490
 1536SOL    HW1 9455   0.359   3.243   1.456
 1536SOL    HW2 9456   0.288   3.098   1.477
 1537SOL     OW 9457   1.614   3.154   1.289
 1537SOL    HW1 9458   1.674   3.157   1.369
 1537SOL    HW2 9459   1.539   3.218   1.302
 1538SOL     OW 9460   1.039   2.960   0.696
 1538SOL    HW1 9461   0.969   2.913   0.750
 1538SOL    HW2 9462   1.098   2.892   0.653
 1539SOL     OW 9463   0.590   3.349   0.491
 1539SOL    HW1 9464   0.632   3.291   0.421
 1539SOL    HW2 9465   0.546   3.428   0.447
 1540SOL     OW 9466   1.709   2.247   1.381
 1540SOL    HW1 9467   1.782   2.316   1.385
 1540SOL    HW2 9468   1.737   2.172   1.322
 1541SOL     OW 9469   0.255   3.210   0.290
 1541SOL    HW1 9470   0.159   3.211   0.263
 1541SOL    HW2 9471   0.267   3.263   0.374
 1542SOL     OW 9472   0.105   2.875   1.726
 1542SOL    HW1 9473   0.028   2.842   1.780
 1542SOL    HW2 9474   0.190   2.845   1.768
 1543SOL     OW 9475   0.672   2.065   1.489
 1543SOL    HW1 9476   0.762   2.049   1.449
 1543SOL    HW2 9477   0.680   2.070   1.588
 1544SOL     OW 9478   0.075   2.207   0.033
 1544SOL    HW1 9479  -0.017   2.179   0.004
 1544SOL    HW2 9480   0.106   2.284  -0.023
 1545SOL     OW 9481   1.440   2.718   1.398
 1545SOL    HW1 9482   1.383   2.770   1.335
 1545SOL    HW2 9483   1.536   2.730   1.374
 1546SOL     OW 9484   1.183   3.197   0.119
 1546SOL    HW1 9485   1.084   3.186   0.121
 1546SOL    HW2 9486   1.217   3.212   0.212
 1547SOL     OW 9487   0.613   2.704   1.431
 1547SOL    HW1 9488   0.669   2.785   1.414
 1547SOL    HW2 9489   0.672   2.624   1.434
 1548SOL     OW 9490   1.493   3.629   0.959
 1548SOL    HW1 9491   1.526   3.693   0.890
 1548SOL    HW2 9492   1.559   3.623   1.034
 1549SOL     OW 9493   0.716   2.427   1.708
 1549SOL    HW1 9494   0.735   2.492   1.782
 1549SOL    HW2 9495   0.776   2.347   1.717
 1550SOL     OW 9496   1.450   3.082   1.633
 1550SOL    HW1 9497   1.441   3.072   1.732
 1550SOL    HW2 9498   1.546   3.075   1.607
 1551SOL     OW 9499   0.390   3.603   1.560
 1551SOL    HW1 9500   0.299   3.644   1.558
 1551SOL    HW2 9501   0.383   3.509   1.592
 1552SOL     OW 9502   1.674   2.745   1.254
 1552SOL    HW1 9503   1.647   2.656   1.217
 1552SOL    HW2 9504   1.675   2.813   1.181
 1553SOL     OW 9505   1.225   2.187   0.449
 1553SOL    HW1 9506   1.290   2.113   0.438
 1553SOL    HW2 9507   1.245   2.237   0.533
 1554SOL     OW 9508   1.777   2.204   1.642
 1554SOL    HW1 9509   1.760   2.235   1.548
 1554SOL    HW2 9510   1.693   2.167   1.680
 1555SOL     OW 9511   1.730   2.796   1.517
 1555SOL    HW1 9512   1.768   2.887   1.532
 1555SOL    HW2 9513   1.722   2.779   1.418
 1556SOL     OW 9514   0.859   3.236   0.016
 1556SOL    HW1 9515   0.813   3.251   0.104
 1556SOL    HW2 9516   0.903   3.321  -0.014
 1557SOL     OW 9517   0.661   3.652   0.953
 1557SOL    HW1 9518   0.615   3.740   0.940
 1557SOL    HW2 9519   0.760   3.664   0.946
 1558SOL     OW 9520   0.859   2.818   0.861
 1558SOL    HW1 9521   0.913   2.749   0.909
 1558SOL    HW2 9522   0.827   2.887   0.927
 1559SOL     OW 9523   0.221   3.176   1.844
 1559SOL    HW1 9524   0.156   3.103   1.823
 1559SOL    HW2 9525   0.225   3.190   1.942
 1560SOL     OW 9526   0.079   3.102   0.653
 1560SOL    HW1 9527   0.078   3.055   0.741
 1560SOL    HW2 9528   0.161   3.074   0.602
 1561SOL     OW 9529   0.672   3.253   1.624
 1561SOL    HW1 9530   0.594   3.203   1.662
 1561SOL    HW2 9531   0.669   3.348   1.655
 1562SOL     OW 9532   1.824   2.054   1.227
 1562SOL    HW1 9533   1.820   1.964   1.271
 1562SOL    HW2 9534   1.827   2.043   1.128
 1563SOL     OW 9535   0.428   2.286   0.520
 1563SOL    HW1 9536   0.458   2.214   0.458
 1563SOL    HW2 9537   0.389   2.246   0.603
 1564SOL     OW 9538   1.705   3.349   1.104
 1564SOL    HW1 9539   1.612   3.324   1.077
 1564SOL    HW2 9540   1.731   3.299   1.186
 1565SOL     OW 9541   0.317   2.409   1.280
 1565SOL    HW1 9542   0.355   2.350   1.352
 1565SOL    HW2 9543   0.357   2.383   1.192
 1566SOL     OW 9544   0.812   3.448   0.687
 1566SOL    HW1 9545   0.844   3.458   0.593
 1566SOL    HW2 9546   0.733   3.386   0.689
 1567SOL     OW 9547   1.424   2.076   1.112
 1567SOL    HW1 9548   1.476   2.011   1.167
 1567SOL    HW2 9549   1.375   2.139   1.173
 1568SOL     OW 9550   1.001   1.896   1.154
 1568SOL    HW1 9551   0.938   1.824   1.123
 1568SOL    HW2 9552   1.094   1.860   1.154
 1569SOL     OW 9553   0.770   3.192   0.301
 1569SOL    HW1 9554   0.724   3.105   0.318
 1569SOL    HW2 9555   0.861   3.189   0.342
 1570SOL     OW 9556   0.618   3.429   1.284
 1570SOL    HW1 9557   0.613   3.511   1.341
 1570SOL    HW2 9558   0.707   3.426   1.239
 1571SOL     OW 9559   1.352   1.914   0.168
 1571SOL    HW1 9560   1.387   1.873   0.084
 1571SOL    HW2 9561   1.262   1.876   0.188
 1572SOL     OW 9562   1.300   2.315   0.691
 1572SOL    HW1 9563   1.241   2.395   0.695
 1572SOL    HW2 9564   1.315   2.280   0.784
 1573SOL     OW 9565   1.593   2.083   0.882
 1573SOL    HW1 9566   1.509   2.082   0.936
 1573SOL    HW2 9567   1.595   2.166   0.826
 1574SOL     OW 9568   0.039   2.939   0.300
 1574SOL    HW1 9569   0.138   2.928   0.291
 1574SOL    HW2 9570  -0.001   2.853   0.332
 1575SOL     OW 9571   0.875   3.508   0.337
 1575SOL    HW1 9572   0.798   3.473   0.283
 1575SOL    HW2 9573   0.843   3.579   0.399
 1576SOL     OW 9574   0.230   2.490   1.975
 1576SOL    HW1 9575   0.137   2.488   2.012
 1576SOL    HW2 9576   0.231   2.451   1.883
 1577SOL     OW 9577   0.225   2.137   2.858
 1577SOL    HW1 9578   0.260   2.120   2.950
 1577SOL    HW2 9579   0.137   2.092   2.846
 1578SOL     OW 9580   0.019   2.230   2.509
 1578SOL    HW1 9581  -0.063   2.273   2.548
 1578SOL    HW2 9582  -0.009   2.157   2.446
 1579SOL     OW 9583   0.569   3.137   3.027
 1579SOL    HW1 9584   0.476   3.130   2.990
 1579SOL    HW2 9585   0.580   3.226   3.071
 1580SOL     OW 9586   1.555   3.373   2.565
 1580SOL    HW1 9587   1.498   3.357   2.646
 1580SOL    HW2 9588   1.496   3.383   2.485
 1581SOL     OW 9589   1.135   2.565   2.579
 1581SOL    HW1 9590   1.192   2.643   2.554
 1581SOL    HW2 9591   1.075   2.591   2.655
 1582SOL     OW 9592   1.755   2.469   2.093
 1582SOL    HW1 9593   1.743   2.456   1.994
 1582SOL    HW2 9594   1.725   2.388   2.142
 1583SOL     OW 9595   0.768   3.006   2.885
 1583SOL    HW1 9596   0.690   3.023   2.945
 1583SOL    HW2 9597   0.802   3.093   2.849
 1584SOL     OW 9598   0.850   2.660   3.685
 1584SOL    HW1 9599   0.846   2.736   3.750
 1584SOL    HW2 9600   0.872   2.696   3.594
 1585SOL     OW 9601   0.685   2.874   2.527
 1585SOL    HW1 9602   0.754   2.858   2.597
 1585SOL    HW2 9603   0.612   2.931   2.565
 1586SOL     OW 9604   0.686   3.023   3.665
 1586SOL    HW1 9605   0.746   3.102   3.679
 1586SOL    HW2 9606   0.600   3.054   3.624
 1587SOL     OW 9607   0.335   3.297   2.923
 1587SOL    HW1 9608   0.257   3.266   2.870
 1587SOL    HW2 9609   0.393   3.355   2.866
 1588SOL     OW 9610   1.603   2.309   2.599
 1588SOL    HW1 9611   1.529   2.355   2.549
 1588SOL    HW2 9612   1.654   2.377   2.652
 1589SOL     OW 9613   0.231   3.575   2.345
 1589SOL    HW1 9614   0.265   3.652   2.399
 1589SOL    HW2 9615   0.275   3.575   2.255
 1590SOL     OW 9616   1.127   3.203   3.552
 1590SOL    HW1 9617   1.174   3.203   3.640
 1590SOL    HW2 9618   1.079   3.116   3.541
 1591SOL     OW 9619   0.230   3.296   2.400
 1591SOL    HW1 9620   0.204   3.392   2.400
 1591SOL    HW2 9621   0.159   3.242   2.445
 1592SOL     OW 9622   0.240   2.953   2.748
 1592SOL    HW1 9623   0.254   2.869   2.800
 1592SOL    HW2 9624   0.185   3.017   2.803
 1593SOL     OW 9625   0.620   3.648   3.301
 1593SOL    HW1 9626   0.528   3.631   3.336
 1593SOL    HW2 9627   0.648   3.740   3.327
 1594SOL     OW 9628   0.606   2.826   1.985
 1594SOL    HW1 9629   0.613   2.910   1.931
 1594SOL    HW2 9630   0.652   2.839   2.073
 1595SOL     OW 9631   1.594   1.976   3.342
 1595SOL    HW1 9632   1.576   2.043   3.270
 1595SOL    HW2 9633   1.591   2.022   3.431
 1596SOL     OW 9634   0.122   2.505   2.425
 1596SOL    HW1 9635   0.077   2.417   2.442
 1596SOL    HW2 9636   0.121   2.559   2.509
 1597SOL     OW 9637   1.842   3.629   2.221
 1597SOL    HW1 9638   1.896   3.600   2.301
 1597SOL    HW2 9639   1.872   3.719   2.192
 1598SOL     OW 9640   0.027   3.458   1.979
 1598SOL    HW1 9641   0.008   3.362   2.000
 1598SOL    HW2 9642  -0.006   3.516   2.054
 1599SOL     OW 9643   1.689   2.784   2.474
 1599SOL    HW1 9644   1.784   2.755   2.482
 1599SOL    HW2 9645   1.681   2.849   2.399
 1600SOL     OW 9646   1.641   2.970   2.294
 1600SOL    HW1 9647   1.727   2.972   2.242
 1600SOL    HW2 9648   1.655   3.017   2.382
 1601SOL     OW 9649   0.613   3.227   2.588
 1601SOL    HW1 9650   0.564   3.140   2.597
 1601SOL    HW2 9651   0.590   3.270   2.501
 1602SOL     OW 9652   1.293   3.090   3.285
 1602SOL    HW1 9653   1.330   3.017   3.227
 1602SOL    HW2 9654   1.345   3.095   3.370
 1603SOL     OW 9655   0.809   1.866   2.364
 1603SOL    HW1 9656   0.849   1.957   2.355
 1603SOL    HW2 9657   0.709   1.874   2.370
 1604SOL     OW 9658   0.197   2.838   3.126
 1604SOL    HW1 9659   0.286   2.793   3.112
 1604SOL    HW2 9660   0.124   2.773   3.107
 1605SOL     OW 9661   1.525   2.861   2.052
 1605SOL    HW1 9662   1.462   2.785   2.065
 1605SOL    HW2 9663   1.573   2.879   2.138
 1606SOL     OW 9664   0.317   2.113   3.663
 1606SOL    HW1 9665   0.388   2.184   3.669
 1606SOL    HW2 9666   0.229   2.152   3.691
 1607SOL     OW 9667   1.466   3.279   2.815
 1607SOL    HW1 9668   1.407   3.285   2.895
 1607SOL    HW2 9669   1.451   3.191   2.769
 1608SOL     OW 9670   1.667   3.576   2.434
 1608SOL    HW1 9671   1.626   3.553   2.346
 1608SOL    HW2 9672   1.649   3.502   2.499
 1609SOL     OW 9673   0.598   2.591   2.132
 1609SOL    HW1 9674   0.622   2.660   2.064
 1609SOL    HW2 9675   0.520   2.624   2.186
 1610SOL     OW 9676   1.281   2.207   2.806
 1610SOL    HW1 9677   1.195   2.157   2.793
 1610SOL    HW2 9678   1.343   2.153   2.862
 1611SOL     OW 9679   1.576   3.524   2.169
 1611SOL    HW1 9680   1.665   3.570   2.172
 1611SOL    HW2 9681   1.555   3.500   2.074
 1612SOL     OW 9682   1.394   2.331   3.536
 1612SOL    HW1 9683   1.374   2.374   3.624
 1612SOL    HW2 9684   1.472   2.269   3.545
 1613SOL     OW 9685   0.973   2.752   3.434
 1613SOL    HW1 9686   1.019   2.668   3.405
 1613SOL    HW2 9687   0.917   2.786   3.359
 1614SOL     OW 9688   0.991   2.272   3.104
 1614SOL    HW1 9689   0.914   2.306   3.158
 1614SOL    HW2 9690   0.957   2.221   3.025
 1615SOL     OW 9691   0.076   2.673   2.651
 1615SOL    HW1 9692   0.175   2.661   2.660
 1615SOL    HW2 9693   0.052   2.768   2.672
 1616SOL     OW 9694   0.130   3.683   3.433
 1616SOL    HW1 9695   0.120   3.668   3.532
 1616SOL    HW2 9696   0.044   3.719   3.397
 1617SOL     OW 9697   0.865   2.210   2.057
 1617SOL    HW1 9698   0.924   2.273   2.008
 1617SOL    HW2 9699   0.884   2.116   2.028
 1618SOL     OW 9700   1.719   2.447   3.693
 1618SOL    HW1 9701   1.693   2.536   3.657
 1618SOL    HW2 9702   1.717   2.379   3.620
 1619SOL     OW 9703   1.362   3.006   2.407
 1619SOL    HW1 9704   1.445   2.977   2.359
 1619SOL    HW2 9705   1.313   3.073   2.351
 1620SOL     OW 9706   0.550   2.058   2.747
 1620SOL    HW1 9707   0.545   2.053   2.847
 1620SOL    HW2 9708   0.552   2.154   2.718
 1621SOL     OW 9709   0.351   3.663   2.715
 1621SOL    HW1 9710   0.401   3.577   2.721
 1621SOL    HW2 9711   0.416   3.740   2.712
 1622SOL     OW 9712   1.795   2.928   2.735
 1622SOL    HW1 9713   1.733   2.913   2.659
 1622SOL    HW2 9714   1.743   2.939   2.820
 1623SOL     OW 9715   1.227   3.412   3.368
 1623SOL    HW1 9716   1.233   3.335   3.432
 1623SOL    HW2 9717   1.175   3.386   3.288
 1624SOL     OW 9718   0.321   2.805   2.104
 1624SOL    HW1 9719   0.403   2.844   2.062
 1624SOL    HW2 9720   0.294   2.723   2.055
 1625SOL     OW 9721   0.461   3.128   3.589
 1625SOL    HW1 9722   0.411   3.129   3.503
 1625SOL    HW2 9723   0.398   3.110   3.665
 1626SOL     OW 9724   1.111   3.638   2.099
 1626SOL    HW1 9725   1.051   3.576   2.149
 1626SOL    HW2 9726   1.142   3.594   2.014
 1627SOL     OW 9727   1.632   3.239   1.943
 1627SOL    HW1 9728   1.600   3.333   1.933
 1627SOL    HW2 9729   1.556   3.176   1.931
 1628SOL     OW 9730   0.464   3.605   2.185
 1628SOL    HW1 9731   0.497   3.644   2.271
 1628SOL    HW2 9732   0.540   3.598   2.120
 1629SOL     OW 9733   1.400   1.969   2.288
 1629SOL    HW1 9734   1.376   1.932   2.198
 1629SOL    HW2 9735   1.499   1.985   2.292
 1630SOL     OW 9736   0.249   3.647   3.103
 1630SOL    HW1 9737   0.306   3.582   3.153
 1630SOL    HW2 9738   0.233   3.614   3.010
 1631SOL     OW 9739   0.940   3.560   2.766
 1631SOL    HW1 9740   1.020   3.503   2.787
 1631SOL    HW2 9741   0.891   3.520   2.689
 1632SOL     OW 9742   1.547   2.084   3.591
 1632SOL    HW1 9743   1.542   2.121   3.683
 1632SOL    HW2 9744   1.475   2.015   3.579
 1633SOL     OW 9745   0.614   1.984   1.979
 1633SOL    HW1 9746   0.712   1.962   1.986
 1633SOL    HW2 9747   0.583   1.967   1.886
 1634SOL     OW 9748   0.781   2.126   3.611
 1634SOL    HW1 9749   0.848   2.065   3.654
 1634SOL    HW2 9750   0.708   2.145   3.676
 1635SOL     OW 9751   0.888   3.376   3.057
 1635SOL    HW1 9752   0.865   3.351   2.963
 1635SOL    HW2 9753   0.949   3.307   3.096
 1636SOL     OW 9754   1.351   2.452   3.295
 1636SOL    HW1 9755   1.379   2.409   3.380
 1636SOL    HW2 9756   1.376   2.548   3.296
 1637SOL     OW 9757   0.803   3.264   2.786
 1637SOL    HW1 9758   0.893   3.278   2.744
 1637SOL    HW2 9759   0.732   3.266   2.715
 1638SOL     OW 9760   0.922   2.365   2.761
 1638SOL    HW1 9761   0.897   2.356   2.665
 1638SOL    HW2 9762   0.970   2.283   2.792
 1639SOL     OW 9763   0.539   1.926   2.374
 1639SOL    HW1 9764   0.458   1.927   2.432
 1639SOL    HW2 9765   0.542   2.009   2.319
 1640SOL     OW 9766   1.434   3.050   1.903
 1640SOL    HW1 9767   1.466   2.974   1.960
 1640SOL    HW2 9768   1.342   3.077   1.933
 1641SOL     OW 9769   0.297   1.897   2.033
 1641SOL    HW1 9770   0.346   1.981   2.012
 1641SOL    HW2 9771   0.359   1.832   2.078
 1642SOL     OW 9772   0.935   2.098   2.342
 1642SOL    HW1 9773   0.887   2.139   2.264
 1642SOL    HW2 9774   1.034   2.096   2.323
 1643SOL     OW 9775   1.076   2.545   3.326
 1643SOL    HW1 9776   0.996   2.484   3.329
 1643SOL    HW2 9777   1.157   2.492   3.302
 1644SOL     OW 9778   0.459   3.014   2.603
 1644SOL    HW1 9779   0.388   2.987   2.668
 1644SOL    HW2 9780   0.433   2.986   2.510
 1645SOL     OW 9781   1.032   2.411   1.878
 1645SOL    HW1 9782   0.991   2.493   1.839
 1645SOL    HW2 9783   1.096   2.437   1.951
 1646SOL     OW 9784   0.561   2.084   3.009
 1646SOL    HW1 9785   0.599   2.000   3.046
 1646SOL    HW2 9786   0.473   2.103   3.053
 1647SOL     OW 9787   0.866   2.316   2.504
 1647SOL    HW1 9788   0.834   2.388   2.442
 1647SOL    HW2 9789   0.890   2.235   2.451
 1648SOL     OW 9790   1.017   1.901   2.615
 1648SOL    HW1 9791   0.945   1.906   2.546
 1648SOL    HW2 9792   0.993   1.832   2.684
 1649SOL     OW 9793   1.429   3.035   2.729
 1649SOL    HW1 9794   1.374   2.951   2.722
 1649SOL    HW2 9795   1.455   3.064   2.637
 1650SOL     OW 9796   1.857   2.695   2.239
 1650SOL    HW1 9797   1.899   2.631   2.303
 1650SOL    HW2 9798   1.819   2.644   2.161
 1651SOL     OW 9799   0.488   3.247   2.036
 1651SOL    HW1 9800   0.401   3.232   2.083
 1651SOL    HW2 9801   0.471   3.273   1.941
 1652SOL     OW 9802   1.664   3.142   2.519
 1652SOL    HW1 9803   1.763   3.150   2.533
 1652SOL    HW2 9804   1.619   3.226   2.550
 1653SOL     OW 9805   1.390   2.437   1.940
 1653SOL    HW1 9806   1.336   2.416   2.021
 1653SOL    HW2 9807   1.481   2.396   1.949
 1654SOL     OW 9808   0.527   2.118   2.190
 1654SOL    HW1 9809   0.554   2.059   2.115
 1654SOL    HW2 9810   0.527   2.213   2.159
 1655SOL     OW 9811   1.754   3.085   3.450
 1655SOL    HW1 9812   1.845   3.046   3.437
 1655SOL    HW2 9813   1.762   3.181   3.474
 1656SOL     OW 9814   1.064   3.209   3.202
 1656SOL    HW1 9815   0.984   3.186   3.257
 1656SOL    HW2 9816   1.147   3.183   3.251
 1657SOL     OW 9817   1.111   3.057   2.962
 1657SOL    HW1 9818   1.071   3.101   3.043
 1657SOL    HW2 9819   1.070   3.094   2.879
 1658SOL     OW 9820   1.638   2.961   2.941
 1658SOL    HW1 9821   1.643   3.042   3.000
 1658SOL    HW2 9822   1.552   2.963   2.890
 1659SOL     OW 9823   0.915   1.951   3.264
 1659SOL    HW1 9824   0.940   1.931   3.169
 1659SOL    HW2 9825   0.987   2.007   3.306
 1660SOL     OW 9826   0.980   2.978   3.581
 1660SOL    HW1 9827   0.881   2.984   3.591
 1660SOL    HW2 9828   1.003   2.898   3.525
 1661SOL     OW 9829   0.705   2.912   2.230
 1661SOL    HW1 9830   0.691   2.919   2.329
 1661SOL    HW2 9831   0.789   2.861   2.212
 1662SOL     OW 9832   0.410   2.675   3.113
 1662SOL    HW1 9833   0.496   2.687   3.163
 1662SOL    HW2 9834   0.368   2.588   3.140
 1663SOL     OW 9835   1.274   2.248   3.124
 1663SOL    HW1 9836   1.295   2.322   3.188
 1663SOL    HW2 9837   1.185   2.265   3.081
 1664SOL     OW 9838   0.064   3.426   3.193
 1664SOL    HW1 9839   0.018   3.508   3.159
 1664SOL    HW2 9840   0.162   3.445   3.202
 1665SOL     OW 9841   0.367   2.962   2.363
 1665SOL    HW1 9842   0.360   3.045   2.307
 1665SOL    HW2 9843   0.371   2.882   2.303
 1666SOL     OW 9844   1.252   3.210   2.250
 1666SOL    HW1 9845   1.302   3.287   2.290
 1666SOL    HW2 9846   1.157   3.212   2.282
 1667SOL     OW 9847   1.272   3.307   3.004
 1667SOL    HW1 9848   1.319   3.320   3.091
 1667SOL    HW2 9849   1.206   3.233   3.013
 1668SOL     OW 9850   1.582   2.501   2.334
 1668SOL    HW1 9851   1.551   2.562   2.407
 1668SOL    HW2 9852   1.632   2.553   2.265
 1669SOL     OW 9853   0.354   3.372   3.191
 1669SOL    HW1 9854   0.333   3.328   3.104
 1669SOL    HW2 9855   0.451   3.398   3.194
 1670SOL     OW 9856   1.587   2.641   3.532
 1670SOL    HW1 9857   1.495   2.679   3.527
 1670SOL    HW2 9858   1.647   2.688   3.467
 1671SOL     OW 9859   1.013   1.967   3.632
 1671SOL    HW1 9860   1.019   2.052   3.580
 1671SOL    HW2 9861   1.045   1.891   3.575
 1672SOL     OW 9862   0.504   1.912   3.602
 1672SOL    HW1 9863   0.462   1.855   3.532
 1672SOL    HW2 9864   0.438   1.981   3.634
 1673SOL     OW 9865   0.573   2.732   2.891
 1673SOL    HW1 9866   0.617   2.821   2.882
 1673SOL    HW2 9867   0.510   2.732   2.968
 1674SOL     OW 9868   1.360   2.724   2.907
 1674SOL    HW1 9869   1.285   2.724   2.841
 1674SOL    HW2 9870   1.397   2.632   2.916
 1675SOL     OW 9871   1.209   2.387   2.137
 1675SOL    HW1 9872   1.222   2.303   2.191
 1675SOL    HW2 9873   1.180   2.461   2.197
 1676SOL     OW 9874   0.307   2.075   3.093
 1676SOL    HW1 9875   0.284   2.112   3.183
 1676SOL    HW2 9876   0.277   1.980   3.087
 1677SOL     OW 9877   0.037   3.172   3.144
 1677SOL    HW1 9878   0.090   3.123   3.212
 1677SOL    HW2 9879   0.059   3.270   3.149
 1678SOL     OW 9880   0.732   2.496   2.926
 1678SOL    HW1 9881   0.791   2.470   2.850
 1678SOL    HW2 9882   0.704   2.592   2.915
 1679SOL     OW 9883   1.728   2.797   3.716
 1679SOL    HW1 9884   1.682   2.790   3.627
 1679SOL    HW2 9885   1.666   2.841   3.782
 1680SOL     OW 9886   0.307   1.925   2.480
 1680SOL    HW1 9887   0.296   2.019   2.513
 1680SOL    HW2 9888   0.302   1.862   2.557
 1681SOL     OW 9889   1.622   2.229   2.236
 1681SOL    HW1 9890   1.624   2.153   2.300
 1681SOL    HW2 9891   1.574   2.306   2.276
 1682SOL     OW 9892   1.023   2.628   2.828
 1682SOL    HW1 9893   1.038   2.649   2.924
 1682SOL    HW2 9894   0.993   2.533   2.819
 1683SOL     OW 9895   0.980   3.435   3.562
 1683SOL    HW1 9896   0.960   3.479   3.474
 1683SOL    HW2 9897   1.019   3.344   3.546
 1684SOL     OW 9898   1.859   3.380   3.467
 1684SOL    HW1 9899   1.873   3.407   3.372
 1684SOL    HW2 9900   1.942   3.402   3.520
 1685SOL     OW 9901   0.350   2.760   3.666
 1685SOL    HW1 9902   0.426   2.804   3.714
 1685SOL    HW2 9903   0.385   2.713   3.584
 1686SOL     OW 9904   1.540   2.136   1.987
 1686SOL    HW1 9905   1.479   2.061   2.010
 1686SOL    HW2 9906   1.562   2.188   2.070
 1687SOL     OW 9907   1.303   2.700   1.904
 1687SOL    HW1 9908   1.337   2.607   1.919
 1687SOL    HW2 9909   1.321   2.727   1.809
 1688SOL     OW 9910   1.068   3.195   2.711
 1688SOL    HW1 9911   1.075   3.111   2.656
 1688SOL    HW2 9912   1.130   3.264   2.675
 1689SOL     OW 9913   0.319   2.672   2.811
 1689SOL    HW1 9914   0.412   2.708   2.816
 1689SOL    HW2 9915   0.313   2.587   2.863
 1690SOL     OW 9916   0.339   2.371   2.868
 1690SOL    HW1 9917   0.287   2.288   2.851
 1690SOL    HW2 9918   0.416   2.376   2.804
 1691SOL     OW 9919   1.138   2.242   3.540
 1691SOL    HW1 9920   1.093   2.305   3.604
 1691SOL    HW2 9921   1.231   2.273   3.523
 1692SOL     OW 9922   1.160   2.069   3.339
 1692SOL    HW1 9923   1.160   2.133   3.416
 1692SOL    HW2 9924   1.188   2.117   3.256
 1693SOL     OW 9925   0.008   3.188   2.062
 1693SOL    HW1 9926  -0.085   3.209   2.031
 1693SOL    HW2 9927   0.018   3.089   2.075
 1694SOL     OW 9928   0.088   3.663   2.789
 1694SOL    HW1 9929   0.046   3.577   2.762
 1694SOL    HW2 9930   0.182   3.666   2.755
 1695SOL     OW 9931   0.504   3.430   2.772
 1695SOL    HW1 9932   0.570   3.504   2.781
 1695SOL    HW2 9933   0.548   3.351   2.730
 1696SOL     OW 9934   1.002   2.658   3.100
 1696SOL    HW1 9935   1.043   2.626   3.186
 1696SOL    HW2 9936   0.906   2.631   3.097
 1697SOL     OW 9937   0.040   2.406   2.976
 1697SOL    HW1 9938   0.125   2.373   2.935
 1697SOL    HW2 9939   0.053   2.421   3.074
 1698SOL     OW 9940   1.369   2.812   3.522
 1698SOL    HW1 9941   1.408   2.901   3.542
 1698SOL    HW2 9942   1.379   2.792   3.425
 1699SOL     OW 9943   0.252   3.426   3.606
 1699SOL    HW1 9944   0.222   3.483   3.682
 1699SOL    HW2 9945   0.245   3.329   3.632
 1700SOL     OW 9946   0.930   3.540   3.327
 1700SOL    HW1 9947   0.906   3.522   3.232
 1700SOL    HW2 9948   0.960   3.634   3.337
 1701SOL     OW 9949   0.473   2.362   2.053
 1701SOL    HW1 9950   0.534   2.442   2.057
 1701SOL    HW2 9951   0.378   2.393   2.060
 1702SOL     OW 9952   0.159   2.999   3.328
 1702SOL    HW1 9953   0.181   2.938   3.404
 1702SOL    HW2 9954   0.169   2.950   3.242
 1703SOL     OW 9955   1.347   2.921   3.096
 1703SOL    HW1 9956   1.371   2.858   3.022
 1703SOL    HW2 9957   1.257   2.961   3.078
 1704SOL     OW 9958   1.302   2.717   2.171
 1704SOL    HW1 9959   1.216   2.686   2.213
 1704SOL    HW2 9960   1.298   2.703   2.072
 1705SOL     OW 9961   1.759   3.609   3.016
 1705SOL    HW1 9962   1.820   3.639   2.943
 1705SOL    HW2 9963   1.721   3.520   2.994
 1706SOL     OW 9964   1.252   3.593   2.990
 1706SOL    HW1 9965   1.336   3.598   2.936
 1706SOL    HW2 9966   1.229   3.497   3.008
 1707SOL     OW 9967   0.083   3.120   2.884
 1707SOL    HW1 9968   0.078   3.119   2.984
 1707SOL    HW2 9969   0.000   3.079   2.846
 1708SOL     OW 9970   0.688   3.524   3.578
 1708SOL    HW1 9971   0.632   3.605   3.587
 1708SOL    HW2 9972   0.740   3.528   3.492
 1709SOL     OW 9973   1.726   1.997   2.385
 1709SOL    HW1 9974   1.799   1.980   2.318
 1709SOL    HW2 9975   1.695   1.910   2.423
 1710SOL     OW 9976   1.388   3.435   2.339
 1710SOL    HW1 9977   1.455   3.447   2.265
 1710SOL    HW2 9978   1.348   3.524   2.362
 1711SOL     OW 9979   0.130   3.656   3.713
 1711SOL    HW1 9980   0.089   3.582   3.766
 1711SOL    HW2 9981   0.194   3.707   3.771
 1712SOL     OW 9982   1.280   2.789   2.534
 1712SOL    HW1 9983   1.340   2.708   2.536
 1712SOL    HW2 9984   1.320   2.858   2.474
 1713SOL     OW 9985   0.830   3.135   3.284
 1713SOL    HW1 9986   0.825   3.168   3.379
 1713SOL    HW2 9987   0.744   3.154   3.238
 1714SOL     OW 9988   0.672   3.478   2.016
 1714SOL    HW1 9989   0.681   3.488   1.917
 1714SOL    HW2 9990   0.632   3.389   2.037
 1715SOL     OW 9991   1.841   2.037   2.825
 1715SOL    HW1 9992   1.880   1.952   2.789
 1715SOL    HW2 9993   1.743   2.039   2.806
 1716SOL     OW 9994   0.263   2.188   2.582
 1716SOL    HW1 9995   0.184   2.239   2.548
 1716SOL    HW2 9996   0.254   2.173   2.680
 1717SOL     OW 9997   1.194   3.474   1.893
 1717SOL    HW1 9998   1.200   3.381   1.930
 1717SOL    HW2 9999   1.135   3.474   1.813
 1718SOL     OW10000   0.822   2.864   3.234
 1718SOL    HW110001   0.862   2.863   3.142
 1718SOL    HW210002   0.832   2.956   3.274
 1719SOL     OW10003   0.916   2.772   2.153
 1719SOL    HW110004   0.979   2.810   2.085
 1719SOL    HW210005   0.956   2.689   2.192
 1720SOL     OW10006   1.504   3.469   1.906
 1720SOL    HW110007   1.412   3.506   1.913
 1720SOL    HW210008   1.542   3.489   1.816
 1721SOL     OW10009   0.372   3.150   3.352
 1721SOL    HW110010   0.359   3.243   3.318
 1721SOL    HW210011   0.288   3.098   3.339
 1722SOL     OW10012   1.614   3.154   3.151
 1722SOL    HW110013   1.674   3.157   3.231
 1722SOL    HW210014   1.539   3.218   3.164
 1723SOL     OW10015   1.039   2.960   2.558
 1723SOL    HW110016   0.969   2.913   2.612
 1723SOL    HW210017   1.098   2.892   2.515
 1724SOL     OW10018   1.014   2.098   2.833
 1724SOL    HW110019   1.006   2.062   2.740
 1724SOL    HW210020   1.012   2.022   2.898
 1725SOL     OW10021   0.590   3.349   2.353
 1725SOL    HW110022   0.632   3.291   2.283
 1725SOL    HW210023   0.546   3.428   2.309
 1726SOL     OW10024   1.709   2.247   3.243
 1726SOL    HW110025   1.782   2.316   3.247
 1726SOL    HW210026   1.737   2.172   3.184
 1727SOL     OW10027   0.255   3.210   2.152
 1727SOL    HW110028   0.159   3.211   2.125
 1727SOL    HW210029   0.267   3.263   2.236
 1728SOL     OW10030   0.105   2.875   3.588
 1728SOL    HW110031   0.028   2.842   3.642
 1728SOL    HW210032   0.190   2.845   3.630
 1729SOL     OW10033   0.075   2.207   1.895
 1729SOL    HW110034  -0.017   2.179   1.866
 1729SOL    HW210035   0.106   2.284   1.839
 1730SOL     OW10036   1.440   2.718   3.260
 1730SOL    HW110037   1.383   2.770   3.197
 1730SOL    HW210038   1.536   2.730   3.236
 1731SOL     OW10039   0.072   2.028   2.180
 1731SOL    HW110040   0.055   2.111   2.126
 1731SOL    HW210041   0.162   1.991   2.158
 1732SOL     OW10042   1.183   3.197   1.981
 1732SOL    HW110043   1.084   3.186   1.983
 1732SOL    HW210044   1.217   3.212   2.074
 1733SOL     OW10045   0.613   2.704   3.293
 1733SOL    HW110046   0.669   2.785   3.276
 1733SOL    HW210047   0.672   2.624   3.296
 1734SOL     OW10048   1.493   3.629   2.821
 1734SOL    HW110049   1.526   3.693   2.752
 1734SOL    HW210050   1.559   3.623   2.896
 1735SOL     OW10051   1.450   3.082   3.495
 1735SOL    HW110052   1.441   3.072   3.594
 1735SOL    HW210053   1.546   3.075   3.469
 1736SOL     OW10054   0.390   3.603   3.422
 1736SOL    HW110055   0.299   3.644   3.420
 1736SOL    HW210056   0.383   3.509   3.454
 1737SOL     OW10057   1.225   2.187   2.311
 1737SOL    HW110058   1.290   2.113   2.300
 1737SOL    HW210059   1.245   2.237   2.395
 1738SOL     OW10060   1.777   2.204   3.504
 1738SOL    HW110061   1.760   2.235   3.410
 1738SOL    HW210062   1.693   2.167   3.542
 1739SOL     OW10063   1.730   2.796   3.379
 1739SOL    HW110064   1.768   2.887   3.394
 1739SOL    HW210065   1.722   2.779   3.280
 1740SOL     OW10066   0.859   3.236   1.878
 1740SOL    HW110067   0.813   3.251   1.966
 1740SOL    HW210068   0.903   3.321   1.848
 1741SOL     OW10069   0.859   2.818   2.723
 1741SOL    HW110070   0.913   2.749   2.771
 1741SOL    HW210071   0.827   2.887   2.789
 1742SOL     OW10072   1.083   2.846   1.949
 1742SOL    HW110073   1.060   2.899   1.867
 1742SOL    HW210074   1.164   2.790   1.930
 1743SOL     OW10075   1.861   3.431   2.713
 1743SOL    HW110076   1.790   3.419   2.643
 1743SOL    HW210077   1.862   3.352   2.773
 1744SOL     OW10078   0.221   3.176   3.706
 1744SOL    HW110079   0.156   3.103   3.685
 1744SOL    HW210080   0.225   3.190   3.804
 1745SOL     OW10081   0.079   3.102   2.515
 1745SOL    HW110082   0.078   3.055   2.603
 1745SOL    HW210083   0.161   3.074   2.464
 1746SOL     OW10084   0.672   3.253   3.486
 1746SOL    HW110085   0.594   3.203   3.524
 1746SOL    HW210086   0.669   3.348   3.517
 1747SOL     OW10087   1.824   2.054   3.089
 1747SOL    HW110088   1.820   1.964   3.133
 1747SOL    HW210089   1.827   2.043   2.990
 1748SOL     OW10090   1.705   3.349   2.966
 1748SOL    HW110091   1.612   3.324   2.939
 1748SOL    HW210092   1.731   3.299   3.048
 1749SOL     OW10093   0.317   2.409   3.142
 1749SOL    HW110094   0.355   2.350   3.214
 1749SOL    HW210095   0.357   2.383   3.054
 1750SOL     OW10096   1.424   2.076   2.974
 1750SOL    HW110097   1.476   2.011   3.029
 1750SOL    HW210098   1.375   2.139   3.035
 1751SOL     OW10099   1.001   1.896   3.016
 1751SOL    HW110100   0.938   1.824   2.985
 1751SOL    HW210101   1.094   1.860   3.016
 1752SOL     OW10102   0.770   3.192   2.163
 1752SOL    HW110103   0.724   3.105   2.180
 1752SOL    HW210104   0.861   3.189   2.204
 1753SOL     OW10105   0.618   3.429   3.146
 1753SOL    HW110106   0.613   3.511   3.203
 1753SOL    HW210107   0.707   3.426   3.101
 1754SOL     OW10108   1.352   1.914   2.030
 1754SOL    HW110109   1.387   1.873   1.946
 1754SOL    HW210110   1.262   1.876   2.050
 1755SOL     OW10111   1.300   2.315   2.553
 1755SOL    HW110112   1.241   2.395   2.557
 1755SOL    HW210113   1.315   2.280   2.646
 1756SOL     OW10114   1.593   2.083   2.744
 1756SOL    HW110115   1.509   2.082   2.798
 1756SOL    HW210116   1.595   2.166   2.688
 1757SOL     OW10117   0.039   2.939   2.162
 1757SOL    HW110118   0.138   2.928   2.153
 1757SOL    HW210119  -0.001   2.853   2.194
 1758SOL     OW10120   0.230   2.490   3.837
 1758SOL    HW110121   0.137   2.488   3.874
 1758SOL    HW210122   0.231   2.451   3.745
 1759SOL     OW10123   0.225   2.137   4.720
 1759SOL    HW110124   0.260   2.120   4.812
 1759SOL    HW210125   0.137   2.092   4.708
 1760SOL     OW10126   0.569   3.137   4.889
 1760SOL    HW110127   0.476   3.130   4.852
 1760SOL    HW210128   0.580   3.226   4.933
 1761SOL     OW10129   1.555   3.373   4.427
 1761SOL    HW110130   1.498   3.357   4.508
 1761SOL    HW210131   1.496   3.383   4.347
 1762SOL     OW10132   1.135   2.565   4.441
 1762SOL    HW110133   1.192   2.643   4.416
 1762SOL    HW210134   1.075   2.591   4.517
 1763SOL     OW10135   1.755   2.469   3.955
 1763SOL    HW110136   1.743   2.456   3.856
 1763SOL    HW210137   1.725   2.388   4.004
 1764SOL     OW10138   0.768   3.006   4.747
 1764SOL    HW110139   0.690   3.023   4.807
 1764SOL    HW210140   0.802   3.093   4.711
 1765SOL     OW10141   0.850   2.660   5.547
 1765SOL    HW110142   0.846   2.736   5.612
 1765SOL    HW210143   0.872   2.696   5.456
 1766SOL     OW10144   0.685   2.874   4.389
 1766SOL    HW110145   0.754   2.858   4.459
 1766SOL    HW210146   0.612   2.931   4.427
 1767SOL     OW10147   0.686   3.023   5.527
 1767SOL    HW110148   0.746   3.102   5.541
 1767SOL    HW210149   0.600   3.054   5.486
 1768SOL     OW10150   1.460   3.367   5.063
 1768SOL    HW110151   1.484   3.461   5.089
 1768SOL    HW210152   1.444   3.313   5.145
 1769SOL     OW10153   0.438   2.254   5.223
 1769SOL    HW110154   0.520   2.198   5.232
 1769SOL    HW210155   0.357   2.196   5.227
 1770SOL     OW10156   1.603   2.309   4.461
 1770SOL    HW110157   1.529   2.355   4.411
 1770SOL    HW210158   1.654   2.377   4.514
 1771SOL     OW10159   0.231   3.575   4.207
 1771SOL    HW110160   0.265   3.652   4.261
 1771SOL    HW210161   0.275   3.575   4.117
 1772SOL     OW10162   1.127   3.203   5.414
 1772SOL    HW110163   1.174   3.203   5.502
 1772SOL    HW210164   1.079   3.116   5.403
 1773SOL     OW10165   0.240   2.953   4.610
 1773SOL    HW110166   0.254   2.869   4.662
 1773SOL    HW210167   0.185   3.017   4.665
 1774SOL     OW10168   0.606   2.826   3.847
 1774SOL    HW110169   0.613   2.910   3.793
 1774SOL    HW210170   0.652   2.839   3.935
 1775SOL     OW10171   1.594   1.976   5.204
 1775SOL    HW110172   1.576   2.043   5.132
 1775SOL    HW210173   1.591   2.022   5.293
 1776SOL     OW10174   0.122   2.505   4.287
 1776SOL    HW110175   0.077   2.417   4.304
 1776SOL    HW210176   0.121   2.559   4.371
 1777SOL     OW10177   1.842   3.629   4.083
 1777SOL    HW110178   1.896   3.600   4.163
 1777SOL    HW210179   1.872   3.719   4.054
 1778SOL     OW10180   0.027   3.458   3.841
 1778SOL    HW110181   0.008   3.362   3.862
 1778SOL    HW210182  -0.006   3.516   3.916
 1779SOL     OW10183   1.689   2.784   4.336
 1779SOL    HW110184   1.784   2.755   4.344
 1779SOL    HW210185   1.681   2.849   4.261
 1780SOL     OW10186   1.641   2.970   4.156
 1780SOL    HW110187   1.727   2.972   4.104
 1780SOL    HW210188   1.655   3.017   4.244
 1781SOL     OW10189   0.113   2.599   5.321
 1781SOL    HW110190   0.201   2.586   5.366
 1781SOL    HW210191   0.100   2.696   5.299
 1782SOL     OW10192   1.293   3.090   5.147
 1782SOL    HW110193   1.330   3.017   5.089
 1782SOL    HW210194   1.345   3.095   5.232
 1783SOL     OW10195   0.809   1.866   4.226
 1783SOL    HW110196   0.849   1.957   4.217
 1783SOL    HW210197   0.709   1.874   4.232
 1784SOL     OW10198   0.197   2.838   4.988
 1784SOL    HW110199   0.286   2.793   4.974
 1784SOL    HW210200   0.124   2.773   4.969
 1785SOL     OW10201   1.525   2.861   3.914
 1785SOL    HW110202   1.462   2.785   3.927
 1785SOL    HW210203   1.573   2.879   4.000
 1786SOL     OW10204   1.187   3.654   5.340
 1786SOL    HW110205   1.211   3.714   5.264
 1786SOL    HW210206   1.194   3.559   5.310
 1787SOL     OW10207   0.317   2.113   5.525
 1787SOL    HW110208   0.388   2.184   5.531
 1787SOL    HW210209   0.229   2.152   5.553
 1788SOL     OW10210   1.667   3.576   4.296
 1788SOL    HW110211   1.626   3.553   4.208
 1788SOL    HW210212   1.649   3.502   4.361
 1789SOL     OW10213   0.598   2.591   3.994
 1789SOL    HW110214   0.622   2.660   3.926
 1789SOL    HW210215   0.520   2.624   4.048
 1790SOL     OW10216   1.281   2.207   4.668
 1790SOL    HW110217   1.195   2.157   4.655
 1790SOL    HW210218   1.343   2.153   4.724
 1791SOL     OW10219   1.576   3.524   4.031
 1791SOL    HW110220   1.665   3.570   4.034
 1791SOL    HW210221   1.555   3.500   3.936
 1792SOL     OW10222   0.807   2.467   5.189
 1792SOL    HW110223   0.760   2.464   5.278
 1792SOL    HW210224   0.756   2.412   5.123
 1793SOL     OW10225   0.973   2.752   5.296
 1793SOL    HW110226   1.019   2.668   5.267
 1793SOL    HW210227   0.917   2.786   5.221
 1794SOL     OW10228   0.991   2.272   4.966
 1794SOL    HW110229   0.914   2.306   5.020
 1794SOL    HW210230   0.957   2.221   4.887
 1795SOL     OW10231   1.041   2.563   4.153
 1795SOL    HW110232   1.067   2.559   4.249
 1795SOL    HW210233   0.956   2.512   4.139
 1796SOL     OW10234   0.076   2.673   4.513
 1796SOL    HW110235   0.175   2.661   4.522
 1796SOL    HW210236   0.052   2.768   4.534
 1797SOL     OW10237   0.130   3.683   5.295
 1797SOL    HW110238   0.120   3.668   5.394
 1797SOL    HW210239   0.044   3.719   5.259
 1798SOL     OW10240   0.865   2.210   3.919
 1798SOL    HW110241   0.924   2.273   3.870
 1798SOL    HW210242   0.884   2.116   3.890
 1799SOL     OW10243   1.719   2.447   5.555
 1799SOL    HW110244   1.693   2.536   5.519
 1799SOL    HW210245   1.717   2.379   5.482
 1800SOL     OW10246   1.362   3.006   4.269
 1800SOL    HW110247   1.445   2.977   4.221
 1800SOL    HW210248   1.313   3.073   4.213
 1801SOL     OW10249   0.550   2.058   4.609
 1801SOL    HW110250   0.545   2.053   4.709
 1801SOL    HW210251   0.552   2.154   4.580
 1802SOL     OW10252   1.008   3.318   4.201
 1802SOL    HW110253   0.962   3.390   4.149
 1802SOL    HW210254   1.004   3.338   4.299
 1803SOL     OW10255   1.795   2.928   4.597
 1803SOL    HW110256   1.733   2.913   4.521
 1803SOL    HW210257   1.743   2.939   4.682
 1804SOL     OW10258   1.227   3.412   5.230
 1804SOL    HW110259   1.233   3.335   5.294
 1804SOL    HW210260   1.175   3.386   5.150
 1805SOL     OW10261   0.321   2.805   3.966
 1805SOL    HW110262   0.403   2.844   3.924
 1805SOL    HW210263   0.294   2.723   3.917
 1806SOL     OW10264   1.458   2.597   4.452
 1806SOL    HW110265   1.453   2.532   4.527
 1806SOL    HW210266   1.538   2.656   4.465
 1807SOL     OW10267   0.461   3.128   5.451
 1807SOL    HW110268   0.411   3.129   5.365
 1807SOL    HW210269   0.398   3.110   5.527
 1808SOL     OW10270   1.111   3.638   3.961
 1808SOL    HW110271   1.051   3.576   4.011
 1808SOL    HW210272   1.142   3.594   3.876
 1809SOL     OW10273   0.202   2.147   5.222
 1809SOL    HW110274   0.122   2.207   5.209
 1809SOL    HW210275   0.192   2.098   5.308
 1810SOL     OW10276   1.632   3.239   3.805
 1810SOL    HW110277   1.600   3.333   3.795
 1810SOL    HW210278   1.556   3.176   3.793
 1811SOL     OW10279   0.464   3.605   4.047
 1811SOL    HW110280   0.497   3.644   4.133
 1811SOL    HW210281   0.540   3.598   3.982
 1812SOL     OW10282   1.400   1.969   4.150
 1812SOL    HW110283   1.376   1.932   4.060
 1812SOL    HW210284   1.499   1.985   4.154
 1813SOL     OW10285   0.249   3.647   4.965
 1813SOL    HW110286   0.306   3.582   5.015
 1813SOL    HW210287   0.233   3.614   4.872
 1814SOL     OW10288   0.382   2.562   4.204
 1814SOL    HW110289   0.427   2.472   4.201
 1814SOL    HW210290   0.288   2.551   4.237
 1815SOL     OW10291   1.547   2.084   5.453
 1815SOL    HW110292   1.542   2.121   5.545
 1815SOL    HW210293   1.475   2.015   5.441
 1816SOL     OW10294   0.614   1.984   3.841
 1816SOL    HW110295   0.712   1.962   3.848
 1816SOL    HW210296   0.583   1.967   3.748
 1817SOL     OW10297   0.781   2.126   5.473
 1817SOL    HW110298   0.848   2.065   5.516
 1817SOL    HW210299   0.708   2.145   5.538
 1818SOL     OW10300   0.922   2.365   4.623
 1818SOL    HW110301   0.897   2.356   4.527
 1818SOL    HW210302   0.970   2.283   4.654
 1819SOL     OW10303   0.539   1.926   4.236
 1819SOL    HW110304   0.458   1.927   4.294
 1819SOL    HW210305   0.542   2.009   4.181
 1820SOL     OW10306   1.434   3.050   3.765
 1820SOL    HW110307   1.466   2.974   3.822
 1820SOL    HW210308   1.342   3.077   3.795
 1821SOL     OW10309   0.935   2.098   4.204
 1821SOL    HW110310   0.887   2.139   4.126
 1821SOL    HW210311   1.034   2.096   4.185
 1822SOL     OW10312   0.459   3.014   4.465
 1822SOL    HW110313   0.388   2.987   4.530
 1822SOL    HW210314   0.433   2.986   4.372
 1823SOL     OW10315   1.271   3.659   4.315
 1823SOL    HW110316   1.315   3.723   4.251
 1823SOL    HW210317   1.221   3.711   4.385
 1824SOL     OW10318   1.032   2.411   3.740
 1824SOL    HW110319   0.991   2.493   3.701
 1824SOL    HW210320   1.096   2.437   3.813
 1825SOL     OW10321   0.078   2.418   5.110
 1825SOL    HW110322   0.170   2.417   5.069
 1825SOL    HW210323   0.072   2.492   5.177
 1826SOL     OW10324   0.561   2.084   4.871
 1826SOL    HW110325   0.599   2.000   4.908
 1826SOL    HW210326   0.473   2.103   4.915
 1827SOL     OW10327   0.866   2.316   4.366
 1827SOL    HW110328   0.834   2.388   4.304
 1827SOL    HW210329   0.890   2.235   4.313
 1828SOL     OW10330   1.017   1.901   4.477
 1828SOL    HW110331   0.945   1.906   4.408
 1828SOL    HW210332   0.993   1.832   4.546
 1829SOL     OW10333   1.429   3.035   4.591
 1829SOL    HW110334   1.374   2.951   4.584
 1829SOL    HW210335   1.455   3.064   4.499
 1830SOL     OW10336   1.466   2.452   4.716
 1830SOL    HW110337   1.436   2.357   4.723
 1830SOL    HW210338   1.539   2.468   4.782
 1831SOL     OW10339   1.857   2.695   4.101
 1831SOL    HW110340   1.899   2.631   4.165
 1831SOL    HW210341   1.819   2.644   4.023
 1832SOL     OW10342   0.488   3.247   3.898
 1832SOL    HW110343   0.401   3.232   3.945
 1832SOL    HW210344   0.471   3.273   3.803
 1833SOL     OW10345   1.664   3.142   4.381
 1833SOL    HW110346   1.763   3.150   4.395
 1833SOL    HW210347   1.619   3.226   4.412
 1834SOL     OW10348   1.390   2.437   3.802
 1834SOL    HW110349   1.336   2.416   3.883
 1834SOL    HW210350   1.481   2.396   3.811
 1835SOL     OW10351   0.527   2.118   4.052
 1835SOL    HW110352   0.554   2.059   3.977
 1835SOL    HW210353   0.527   2.213   4.021
 1836SOL     OW10354   1.754   3.085   5.312
 1836SOL    HW110355   1.845   3.046   5.299
 1836SOL    HW210356   1.762   3.181   5.336
 1837SOL     OW10357   1.064   3.209   5.064
 1837SOL    HW110358   0.984   3.186   5.119
 1837SOL    HW210359   1.147   3.183   5.113
 1838SOL     OW10360   1.592   3.491   5.349
 1838SOL    HW110361   1.619   3.525   5.259
 1838SOL    HW210362   1.671   3.453   5.395
 1839SOL     OW10363   1.111   3.057   4.824
 1839SOL    HW110364   1.071   3.101   4.905
 1839SOL    HW210365   1.070   3.094   4.741
 1840SOL     OW10366   1.638   2.961   4.803
 1840SOL    HW110367   1.643   3.042   4.862
 1840SOL    HW210368   1.552   2.963   4.752
 1841SOL     OW10369   0.915   1.951   5.126
 1841SOL    HW110370   0.940   1.931   5.031
 1841SOL    HW210371   0.987   2.007   5.168
 1842SOL     OW10372   0.980   2.978   5.443
 1842SOL    HW110373   0.881   2.984   5.453
 1842SOL    HW210374   1.003   2.898   5.387
 1843SOL     OW10375   0.705   2.912   4.092
 1843SOL    HW110376   0.691   2.919   4.191
 1843SOL    HW210377   0.789   2.861   4.074
 1844SOL     OW10378   0.410   2.675   4.975
 1844SOL    HW110379   0.496   2.687   5.025
 1844SOL    HW210380   0.368   2.588   5.002
 1845SOL     OW10381   1.274   2.248   4.986
 1845SOL    HW110382   1.295   2.322   5.050
 1845SOL    HW210383   1.185   2.265   4.943
 1846SOL     OW10384   0.064   3.426   5.055
 1846SOL    HW110385   0.018   3.508   5.021
 1846SOL    HW210386   0.162   3.445   5.064
 1847SOL     OW10387   0.367   2.962   4.225
 1847SOL    HW110388   0.360   3.045   4.169
 1847SOL    HW210389   0.371   2.882   4.165
 1848SOL     OW10390   0.566   2.399   4.589
 1848SOL    HW110391   0.578   2.465   4.515
 1848SOL    HW210392   0.612   2.433   4.672
 1849SOL     OW10393   1.252   3.210   4.112
 1849SOL    HW110394   1.302   3.287   4.152
 1849SOL    HW210395   1.157   3.212   4.144
 1850SOL     OW10396   1.582   2.501   4.196
 1850SOL    HW110397   1.551   2.562   4.269
 1850SOL    HW210398   1.632   2.553   4.127
 1851SOL     OW10399   0.354   3.372   5.053
 1851SOL    HW110400   0.333   3.328   4.966
 1851SOL    HW210401   0.451   3.398   5.056
 1852SOL     OW10402   0.402   2.613   5.322
 1852SOL    HW110403   0.470   2.668   5.275
 1852SOL    HW210404   0.442   2.525   5.349
 1853SOL     OW10405   1.013   1.967   5.494
 1853SOL    HW110406   1.019   2.052   5.442
 1853SOL    HW210407   1.045   1.891   5.437
 1854SOL     OW10408   0.504   1.912   5.464
 1854SOL    HW110409   0.462   1.855   5.394
 1854SOL    HW210410   0.438   1.981   5.496
 1855SOL     OW10411   0.573   2.732   4.753
 1855SOL    HW110412   0.617   2.821   4.744
 1855SOL    HW210413   0.510   2.732   4.830
 1856SOL     OW10414   1.360   2.724   4.769
 1856SOL    HW110415   1.285   2.724   4.703
 1856SOL    HW210416   1.397   2.632   4.778
 1857SOL     OW10417   1.209   2.387   3.999
 1857SOL    HW110418   1.222   2.303   4.053
 1857SOL    HW210419   1.180   2.461   4.059
 1858SOL     OW10420   0.307   2.075   4.955
 1858SOL    HW110421   0.284   2.112   5.045
 1858SOL    HW210422   0.277   1.980   4.949
 1859SOL     OW10423   0.037   3.172   5.006
 1859SOL    HW110424   0.090   3.123   5.074
 1859SOL    HW210425   0.059   3.270   5.011
 1860SOL     OW10426   0.732   2.496   4.788
 1860SOL    HW110427   0.791   2.470   4.712
 1860SOL    HW210428   0.704   2.592   4.777
 1861SOL     OW10429   1.728   2.797   5.578
 1861SOL    HW110430   1.682   2.790   5.489
 1861SOL    HW210431   1.666   2.841   5.644
 1862SOL     OW10432   1.622   2.229   4.098
 1862SOL    HW110433   1.624   2.153   4.162
 1862SOL    HW210434   1.574   2.306   4.138
 1863SOL     OW10435   1.023   2.628   4.690
 1863SOL    HW110436   1.038   2.649   4.786
 1863SOL    HW210437   0.993   2.533   4.681
 1864SOL     OW10438   0.980   3.435   5.424
 1864SOL    HW110439   0.960   3.479   5.336
 1864SOL    HW210440   1.019   3.344   5.408
 1865SOL     OW10441   1.859   3.380   5.329
 1865SOL    HW110442   1.873   3.407   5.234
 1865SOL    HW210443   1.942   3.402   5.382
 1866SOL     OW10444   0.350   2.760   5.528
 1866SOL    HW110445   0.426   2.804   5.576
 1866SOL    HW210446   0.385   2.713   5.446
 1867SOL     OW10447   1.540   2.136   3.849
 1867SOL    HW110448   1.479   2.061   3.872
 1867SOL    HW210449   1.562   2.188   3.932
 1868SOL     OW10450   1.303   2.700   3.766
 1868SOL    HW110451   1.337   2.607   3.781
 1868SOL    HW210452   1.321   2.727   3.671
 1869SOL     OW10453   0.319   2.672   4.673
 1869SOL    HW110454   0.412   2.708   4.678
 1869SOL    HW210455   0.313   2.587   4.725
 1870SOL     OW10456   0.339   2.371   4.730
 1870SOL    HW110457   0.287   2.288   4.713
 1870SOL    HW210458   0.416   2.376   4.666
 1871SOL     OW10459   1.160   2.069   5.201
 1871SOL    HW110460   1.160   2.133   5.278
 1871SOL    HW210461   1.188   2.117   5.118
 1872SOL     OW10462   0.008   3.188   3.924
 1872SOL    HW110463  -0.085   3.209   3.893
 1872SOL    HW210464   0.018   3.089   3.937
 1873SOL     OW10465   0.088   3.663   4.651
 1873SOL    HW110466   0.046   3.577   4.624
 1873SOL    HW210467   0.182   3.666   4.617
 1874SOL     OW10468   1.002   2.658   4.962
 1874SOL    HW110469   1.043   2.626   5.048
 1874SOL    HW210470   0.906   2.631   4.959
 1875SOL     OW10471   0.040   2.406   4.838
 1875SOL    HW110472   0.125   2.373   4.797
 1875SOL    HW210473   0.053   2.421   4.936
 1876SOL     OW10474   0.189   2.382   5.446
 1876SOL    HW110475   0.248   2.342   5.376
 1876SOL    HW210476   0.131   2.453   5.405
 1877SOL     OW10477   1.369   2.812   5.384
 1877SOL    HW110478   1.408   2.901   5.404
 1877SOL    HW210479   1.379   2.792   5.287
 1878SOL     OW10480   0.815   2.434   4.049
 1878SOL    HW110481   0.822   2.345   4.003
 1878SOL    HW210482   0.721   2.468   4.041
 1879SOL     OW10483   1.657   2.466   4.930
 1879SOL    HW110484   1.619   2.397   4.992
 1879SOL    HW210485   1.739   2.430   4.886
 1880SOL     OW10486   0.252   3.426   5.468
 1880SOL    HW110487   0.222   3.483   5.544
 1880SOL    HW210488   0.245   3.329   5.494
 1881SOL     OW10489   0.671   2.326   4.993
 1881SOL    HW110490   0.637   2.237   4.963
 1881SOL    HW210491   0.697   2.380   4.913
 1882SOL     OW10492   0.473   2.362   3.915
 1882SOL    HW110493   0.534   2.442   3.919
 1882SOL    HW210494   0.378   2.393   3.922
 1883SOL     OW10495   0.159   2.999   5.190
 1883SOL    HW110496   0.181   2.938   5.266
 1883SOL    HW210497   0.169   2.950   5.104
 1884SOL     OW10498   1.347   2.921   4.958
 1884SOL    HW110499   1.371   2.858   4.884
 1884SOL    HW210500   1.257   2.961   4.940
 1885SOL     OW10501   1.302   2.717   4.033
 1885SOL    HW110502   1.216   2.686   4.075
 1885SOL    HW210503   1.298   2.703   3.934
 1886SOL     OW10504   1.759   3.609   4.878
 1886SOL    HW110505   1.820   3.639   4.805
 1886SOL    HW210506   1.721   3.520   4.856
 1887SOL     OW10507   0.083   3.120   4.746
 1887SOL    HW110508   0.078   3.119   4.846
 1887SOL    HW210509   0.000   3.079   4.708
 1888SOL     OW10510   0.688   3.524   5.440
 1888SOL    HW110511   0.632   3.605   5.449
 1888SOL    HW210512   0.740   3.528   5.354
 1889SOL     OW10513   1.726   1.997   4.247
 1889SOL    HW110514   1.799   1.980   4.180
 1889SOL    HW210515   1.695   1.910   4.285
 1890SOL     OW10516   1.388   3.435   4.201
 1890SOL    HW110517   1.455   3.447   4.127
 1890SOL    HW210518   1.348   3.524   4.224
 1891SOL     OW10519   0.130   3.656   5.575
 1891SOL    HW110520   0.089   3.582   5.628
 1891SOL    HW210521   0.194   3.707   5.633
 1892SOL     OW10522   1.280   2.789   4.396
 1892SOL    HW110523   1.340   2.708   4.398
 1892SOL    HW210524   1.320   2.858   4.336
 1893SOL     OW10525   0.830   3.135   5.146
 1893SOL    HW110526   0.825   3.168   5.241
 1893SOL    HW210527   0.744   3.154   5.100
 1894SOL     OW10528   0.672   3.478   3.878
 1894SOL    HW110529   0.681   3.488   3.779
 1894SOL    HW210530   0.632   3.389   3.899
 1895SOL     OW10531   1.650   3.582   5.118
 1895SOL    HW110532   1.703   3.592   5.034
 1895SOL    HW210533   1.623   3.672   5.152
 1896SOL     OW10534   1.841   2.037   4.687
 1896SOL    HW110535   1.880   1.952   4.651
 1896SOL    HW210536   1.743   2.039   4.668
 1897SOL     OW10537   0.263   2.188   4.444
 1897SOL    HW110538   0.184   2.239   4.410
 1897SOL    HW210539   0.254   2.173   4.542
 1898SOL     OW10540   1.194   3.474   3.755
 1898SOL    HW110541   1.200   3.381   3.792
 1898SOL    HW210542   1.135   3.474   3.675
 1899SOL     OW10543   0.822   2.864   5.096
 1899SOL    HW110544   0.862   2.863   5.004
 1899SOL    HW210545   0.832   2.956   5.136
 1900SOL     OW10546   0.916   2.772   4.015
 1900SOL    HW110547   0.979   2.810   3.947
 1900SOL    HW210548   0.956   2.689   4.054
 1901SOL     OW10549   1.504   3.469   3.768
 1901SOL    HW110550   1.412   3.506   3.775
 1901SOL    HW210551   1.542   3.489   3.678
 1902SOL     OW10552   0.372   3.150   5.214
 1902SOL    HW110553   0.359   3.243   5.180
 1902SOL    HW210554   0.288   3.098   5.201
 1903SOL     OW10555   1.614   3.154   5.013
 1903SOL    HW110556   1.674   3.157   5.093
 1903SOL    HW210557   1.539   3.218   5.026
 1904SOL     OW10558   1.039   2.960   4.420
 1904SOL    HW110559   0.969   2.913   4.474
 1904SOL    HW210560   1.098   2.892   4.377
 1905SOL     OW10561   1.014   2.098   4.695
 1905SOL    HW110562   1.006   2.062   4.602
 1905SOL    HW210563   1.012   2.022   4.760
 1906SOL     OW10564   1.709   2.247   5.105
 1906SOL    HW110565   1.782   2.316   5.109
 1906SOL    HW210566   1.737   2.172   5.046
 1907SOL     OW10567   0.255   3.210   4.014
 1907SOL    HW110568   0.159   3.211   3.987
 1907SOL    HW210569   0.267   3.263   4.098
 1908SOL     OW10570   0.105   2.875   5.450
 1908SOL    HW110571   0.028   2.842   5.504
 1908SOL    HW210572   0.190   2.845   5.492
 1909SOL     OW10573   0.672   2.065   5.213
 1909SOL    HW110574   0.762   2.049   5.173
 1909SOL    HW210575   0.680   2.070   5.312
 1910SOL     OW10576   0.075   2.207   3.757
 1910SOL    HW110577  -0.017   2.179   3.728
 1910SOL    HW210578   0.106   2.284   3.701
 1911SOL     OW10579   1.440   2.718   5.122
 1911SOL    HW110580   1.383   2.770   5.059
 1911SOL    HW210581   1.536   2.730   5.098
 1912SOL     OW10582   0.072   2.028   4.042
 1912SOL    HW110583   0.055   2.111   3.988
 1912SOL    HW210584   0.162   1.991   4.020
 1913SOL     OW10585   1.183   3.197   3.843
 1913SOL    HW110586   1.084   3.186   3.845
 1913SOL    HW210587   1.217   3.212   3.936
 1914SOL     OW10588   0.613   2.704   5.155
 1914SOL    HW110589   0.669   2.785   5.138
 1914SOL    HW210590   0.672   2.624   5.158
 1915SOL     OW10591   1.493   3.629   4.683
 1915SOL    HW110592   1.526   3.693   4.614
 1915SOL    HW210593   1.559   3.623   4.758
 1916SOL     OW10594   0.716   2.427   5.432
 1916SOL    HW110595   0.735   2.492   5.506
 1916SOL    HW210596   0.776   2.347   5.441
 1917SOL     OW10597   1.450   3.082   5.357
 1917SOL    HW110598   1.441   3.072   5.456
 1917SOL    HW210599   1.546   3.075   5.331
 1918SOL     OW10600   0.390   3.603   5.284
 1918SOL    HW110601   0.299   3.644   5.282
 1918SOL    HW210602   0.383   3.509   5.316
 1919SOL     OW10603   1.674   2.745   4.978
 1919SOL    HW110604   1.647   2.656   4.941
 1919SOL    HW210605   1.675   2.813   4.905
 1920SOL     OW10606   1.225   2.187   4.173
 1920SOL    HW110607   1.290   2.113   4.162
 1920SOL    HW210608   1.245   2.237   4.257
 1921SOL     OW10609   0.594   2.607   4.376
 1921SOL    HW110610   0.644   2.692   4.357
 1921SOL    HW210611   0.506   2.609   4.328
 1922SOL     OW10612   1.777   2.204   5.366
 1922SOL    HW110613   1.760   2.235   5.272
 1922SOL    HW210614   1.693   2.167   5.404
 1923SOL     OW10615   1.730   2.796   5.241
 1923SOL    HW110616   1.768   2.887   5.256
 1923SOL    HW210617   1.722   2.779   5.142
 1924SOL     OW10618   0.859   3.236   3.740
 1924SOL    HW110619   0.813   3.251   3.828
 1924SOL    HW210620   0.903   3.321   3.710
 1925SOL     OW10621   0.859   2.818   4.585
 1925SOL    HW110622   0.913   2.749   4.633
 1925SOL    HW210623   0.827   2.887   4.651
 1926SOL     OW10624   1.083   2.846   3.811
 1926SOL    HW110625   1.060   2.899   3.729
 1926SOL    HW210626   1.164   2.790   3.792
 1927SOL     OW10627   1.861   3.431   4.575
 1927SOL    HW110628   1.790   3.419   4.505
 1927SOL    HW210629   1.862   3.352   4.635
 1928SOL     OW10630   0.221   3.176   5.568
 1928SOL    HW110631   0.156   3.103   5.547
 1928SOL    HW210632   0.225   3.190   5.666
 1929SOL     OW10633   0.079   3.102   4.377
 1929SOL    HW110634   0.078   3.055   4.465
 1929SOL    HW210635   0.161   3.074   4.326
 1930SOL     OW10636   0.672   3.253   5.348
 1930SOL    HW110637   0.594   3.203   5.386
 1930SOL    HW210638   0.669   3.348   5.379
 1931SOL     OW10639   1.824   2.054   4.951
 1931SOL    HW110640   1.820   1.964   4.995
 1931SOL    HW210641   1.827   2.043   4.852
 1932SOL     OW10642   0.428   2.286   4.244
 1932SOL    HW110643   0.458   2.214   4.182
 1932SOL    HW210644   0.389   2.246   4.327
 1933SOL     OW10645   1.705   3.349   4.828
 1933SOL    HW110646   1.612   3.324   4.801
 1933SOL    HW210647   1.731   3.299   4.910
 1934SOL     OW10648   0.317   2.409   5.004
 1934SOL    HW110649   0.355   2.350   5.076
 1934SOL    HW210650   0.357   2.383   4.916
 1935SOL     OW10651   1.424   2.076   4.836
 1935SOL    HW110652   1.476   2.011   4.891
 1935SOL    HW210653   1.375   2.139   4.897
 1936SOL     OW10654   1.001   1.896   4.878
 1936SOL    HW110655   0.938   1.824   4.847
 1936SOL    HW210656   1.094   1.860   4.878
 1937SOL     OW10657   0.770   3.192   4.025
 1937SOL    HW110658   0.724   3.105   4.042
 1937SOL    HW210659   0.861   3.189   4.066
 1938SOL     OW10660   1.352   1.914   3.892
 1938SOL    HW110661   1.387   1.873   3.808
 1938SOL    HW210662   1.262   1.876   3.912
 1939SOL     OW10663   1.300   2.315   4.415
 1939SOL    HW110664   1.241   2.395   4.419
 1939SOL    HW210665   1.315   2.280   4.508
 1940SOL     OW10666   1.593   2.083   4.606
 1940SOL    HW110667   1.509   2.082   4.660
 1940SOL    HW210668   1.595   2.166   4.550
 1941SOL     OW10669   0.039   2.939   4.024
 1941SOL    HW110670   0.138   2.928   4.015
 1941SOL    HW210671  -0.001   2.853   4.056
 1942SOL     OW10672   0.875   3.508   4.061
 1942SOL    HW110673   0.798   3.473   4.007
 1942SOL    HW210674   0.843   3.579   4.123
 1943SOL     OW10675   0.230   2.490   5.699
 1943SOL    HW110676   0.137   2.488   5.736
 1943SOL    HW210677   0.231   2.451   5.607
 1944SOL     OW10678   0.225   2.137   6.582
 1944SOL    HW110679   0.260   2.120   6.674
 1944SOL    HW210680   0.137   2.092   6.570
 1945SOL     OW10681   0.019   2.230   6.233
 1945SOL    HW110682  -0.063   2.273   6.272
 1945SOL    HW210683  -0.009   2.157   6.170
 1946SOL     OW10684   1.555   3.373   6.289
 1946SOL    HW110685   1.498   3.357   6.370
 1946SOL    HW210686   1.496   3.383   6.209
 1947SOL     OW10687   1.135   2.565   6.303
 1947SOL    HW110688   1.192   2.643   6.278
 1947SOL    HW210689   1.075   2.591   6.379
 1948SOL     OW10690   1.755   2.469   5.817
 1948SOL    HW110691   1.743   2.456   5.718
 1948SOL    HW210692   1.725   2.388   5.866
 1949SOL     OW10693   0.850   2.660   7.409
 1949SOL    HW110694   0.846   2.736   7.474
 1949SOL    HW210695   0.872   2.696   7.318
 1950SOL     OW10696   0.685   2.874   6.251
 1950SOL    HW110697   0.754   2.858   6.321
 1950SOL    HW210698   0.612   2.931   6.289
 1951SOL     OW10699   0.686   3.023   7.389
 1951SOL    HW110700   0.746   3.102   7.403
 1951SOL    HW210701   0.600   3.054   7.348
 1952SOL     OW10702   0.438   2.254   7.085
 1952SOL    HW110703   0.520   2.198   7.094
 1952SOL    HW210704   0.357   2.196   7.089
 1953SOL     OW10705   1.603   2.309   6.323
 1953SOL    HW110706   1.529   2.355   6.273
 1953SOL    HW210707   1.654   2.377   6.376
 1954SOL     OW10708   0.231   3.575   6.069
 1954SOL    HW110709   0.265   3.652   6.123
 1954SOL    HW210710   0.275   3.575   5.979
 1955SOL     OW10711   1.127   3.203   7.276
 1955SOL    HW110712   1.174   3.203   7.364
 1955SOL    HW210713   1.079   3.116   7.265
 1956SOL     OW10714   0.230   3.296   6.124
 1956SOL    HW110715   0.204   3.392   6.124
 1956SOL    HW210716   0.159   3.242   6.169
 1957SOL     OW10717   0.620   3.648   7.025
 1957SOL    HW110718   0.528   3.631   7.060
 1957SOL    HW210719   0.648   3.740   7.051
 1958SOL     OW10720   0.606   2.826   5.709
 1958SOL    HW110721   0.613   2.910   5.655
 1958SOL    HW210722   0.652   2.839   5.797
 1959SOL     OW10723   0.122   2.505   6.149
 1959SOL    HW110724   0.077   2.417   6.166
 1959SOL    HW210725   0.121   2.559   6.233
 1960SOL     OW10726   1.842   3.629   5.945
 1960SOL    HW110727   1.896   3.600   6.025
 1960SOL    HW210728   1.872   3.719   5.916
 1961SOL     OW10729   0.027   3.458   5.703
 1961SOL    HW110730   0.008   3.362   5.724
 1961SOL    HW210731  -0.006   3.516   5.778
 1962SOL     OW10732   1.689   2.784   6.198
 1962SOL    HW110733   1.784   2.755   6.206
 1962SOL    HW210734   1.681   2.849   6.123
 1963SOL     OW10735   1.641   2.970   6.018
 1963SOL    HW110736   1.727   2.972   5.966
 1963SOL    HW210737   1.655   3.017   6.106
 1964SOL     OW10738   0.113   2.599   7.183
 1964SOL    HW110739   0.201   2.586   7.228
 1964SOL    HW210740   0.100   2.696   7.161
 1965SOL     OW10741   1.293   3.090   7.009
 1965SOL    HW110742   1.330   3.017   6.951
 1965SOL    HW210743   1.345   3.095   7.094
 1966SOL     OW10744   0.809   1.866   6.088
 1966SOL    HW110745   0.849   1.957   6.079
 1966SOL    HW210746   0.709   1.874   6.094
 1967SOL     OW10747   1.525   2.861   5.776
 1967SOL    HW110748   1.462   2.785   5.789
 1967SOL    HW210749   1.573   2.879   5.862
 1968SOL     OW10750   0.317   2.113   7.387
 1968SOL    HW110751   0.388   2.184   7.393
 1968SOL    HW210752   0.229   2.152   7.415
 1969SOL     OW10753   1.466   3.279   6.539
 1969SOL    HW110754   1.407   3.285   6.619
 1969SOL    HW210755   1.451   3.191   6.493
 1970SOL     OW10756   1.667   3.576   6.158
 1970SOL    HW110757   1.626   3.553   6.070
 1970SOL    HW210758   1.649   3.502   6.223
 1971SOL     OW10759   0.598   2.591   5.856
 1971SOL    HW110760   0.622   2.660   5.788
 1971SOL    HW210761   0.520   2.624   5.910
 1972SOL     OW10762   1.281   2.207   6.530
 1972SOL    HW110763   1.195   2.157   6.517
 1972SOL    HW210764   1.343   2.153   6.586
 1973SOL     OW10765   1.576   3.524   5.893
 1973SOL    HW110766   1.665   3.570   5.896
 1973SOL    HW210767   1.555   3.500   5.798
 1974SOL     OW10768   0.807   2.467   7.051
 1974SOL    HW110769   0.760   2.464   7.140
 1974SOL    HW210770   0.756   2.412   6.985
 1975SOL     OW10771   1.394   2.331   7.260
 1975SOL    HW110772   1.374   2.374   7.348
 1975SOL    HW210773   1.472   2.269   7.269
 1976SOL     OW10774   0.973   2.752   7.158
 1976SOL    HW110775   1.019   2.668   7.129
 1976SOL    HW210776   0.917   2.786   7.083
 1977SOL     OW10777   0.991   2.272   6.828
 1977SOL    HW110778   0.914   2.306   6.882
 1977SOL    HW210779   0.957   2.221   6.749
 1978SOL     OW10780   1.041   2.563   6.015
 1978SOL    HW110781   1.067   2.559   6.111
 1978SOL    HW210782   0.956   2.512   6.001
 1979SOL     OW10783   0.130   3.683   7.157
 1979SOL    HW110784   0.120   3.668   7.256
 1979SOL    HW210785   0.044   3.719   7.121
 1980SOL     OW10786   1.719   2.447   7.417
 1980SOL    HW110787   1.693   2.536   7.381
 1980SOL    HW210788   1.717   2.379   7.344
 1981SOL     OW10789   1.362   3.006   6.131
 1981SOL    HW110790   1.445   2.977   6.083
 1981SOL    HW210791   1.313   3.073   6.075
 1982SOL     OW10792   0.550   2.058   6.471
 1982SOL    HW110793   0.545   2.053   6.571
 1982SOL    HW210794   0.552   2.154   6.442
 1983SOL     OW10795   0.351   3.663   6.439
 1983SOL    HW110796   0.401   3.577   6.445
 1983SOL    HW210797   0.416   3.740   6.436
 1984SOL     OW10798   1.795   2.928   6.459
 1984SOL    HW110799   1.733   2.913   6.383
 1984SOL    HW210800   1.743   2.939   6.544
 1985SOL     OW10801   0.321   2.805   5.828
 1985SOL    HW110802   0.403   2.844   5.786
 1985SOL    HW210803   0.294   2.723   5.779
 1986SOL     OW10804   1.458   2.597   6.314
 1986SOL    HW110805   1.453   2.532   6.389
 1986SOL    HW210806   1.538   2.656   6.327
 1987SOL     OW10807   0.461   3.128   7.313
 1987SOL    HW110808   0.411   3.129   7.227
 1987SOL    HW210809   0.398   3.110   7.389
 1988SOL     OW10810   0.202   2.147   7.084
 1988SOL    HW110811   0.122   2.207   7.071
 1988SOL    HW210812   0.192   2.098   7.170
 1989SOL     OW10813   1.632   3.239   5.667
 1989SOL    HW110814   1.600   3.333   5.657
 1989SOL    HW210815   1.556   3.176   5.655
 1990SOL     OW10816   0.464   3.605   5.909
 1990SOL    HW110817   0.497   3.644   5.995
 1990SOL    HW210818   0.540   3.598   5.844
 1991SOL     OW10819   1.400   1.969   6.012
 1991SOL    HW110820   1.376   1.932   5.922
 1991SOL    HW210821   1.499   1.985   6.016
 1992SOL     OW10822   0.249   3.647   6.827
 1992SOL    HW110823   0.306   3.582   6.877
 1992SOL    HW210824   0.233   3.614   6.734
 1993SOL     OW10825   0.940   3.560   6.490
 1993SOL    HW110826   1.020   3.503   6.511
 1993SOL    HW210827   0.891   3.520   6.413
 1994SOL     OW10828   0.382   2.562   6.066
 1994SOL    HW110829   0.427   2.472   6.063
 1994SOL    HW210830   0.288   2.551   6.099
 1995SOL     OW10831   1.547   2.084   7.315
 1995SOL    HW110832   1.542   2.121   7.407
 1995SOL    HW210833   1.475   2.015   7.303
 1996SOL     OW10834   0.614   1.984   5.703
 1996SOL    HW110835   0.712   1.962   5.710
 1996SOL    HW210836   0.583   1.967   5.610
 1997SOL     OW10837   0.781   2.126   7.335
 1997SOL    HW110838   0.848   2.065   7.378
 1997SOL    HW210839   0.708   2.145   7.400
 1998SOL     OW10840   0.888   3.376   6.781
 1998SOL    HW110841   0.865   3.351   6.687
 1998SOL    HW210842   0.949   3.307   6.820
 1999SOL     OW10843   1.351   2.452   7.019
 1999SOL    HW110844   1.379   2.409   7.104
 1999SOL    HW210845   1.376   2.548   7.020
 2000SOL     OW10846   0.922   2.365   6.485
 2000SOL    HW110847   0.897   2.356   6.389
 2000SOL    HW210848   0.970   2.283   6.516
 2001SOL     OW10849   0.539   1.926   6.098
 2001SOL    HW110850   0.458   1.927   6.156
 2001SOL    HW210851   0.542   2.009   6.043
 2002SOL     OW10852   1.434   3.050   5.627
 2002SOL    HW110853   1.466   2.974   5.684
 2002SOL    HW210854   1.342   3.077   5.657
 2003SOL     OW10855   0.297   1.897   5.757
 2003SOL    HW110856   0.346   1.981   5.736
 2003SOL    HW210857   0.359   1.832   5.802
 2004SOL     OW10858   1.076   2.545   7.050
 2004SOL    HW110859   0.996   2.484   7.053
 2004SOL    HW210860   1.157   2.492   7.026
 2005SOL     OW10861   1.227   3.432   6.379
 2005SOL    HW110862   1.248   3.506   6.314
 2005SOL    HW210863   1.295   3.432   6.452
 2006SOL     OW10864   0.459   3.014   6.327
 2006SOL    HW110865   0.388   2.987   6.392
 2006SOL    HW210866   0.433   2.986   6.234
 2007SOL     OW10867   0.078   2.418   6.972
 2007SOL    HW110868   0.170   2.417   6.931
 2007SOL    HW210869   0.072   2.492   7.039
 2008SOL     OW10870   0.561   2.084   6.733
 2008SOL    HW110871   0.599   2.000   6.770
 2008SOL    HW210872   0.473   2.103   6.777
 2009SOL     OW10873   0.866   2.316   6.228
 2009SOL    HW110874   0.834   2.388   6.166
 2009SOL    HW210875   0.890   2.235   6.175
 2010SOL     OW10876   1.017   1.901   6.339
 2010SOL    HW110877   0.945   1.906   6.270
 2010SOL    HW210878   0.993   1.832   6.408
 2011SOL     OW10879   1.429   3.035   6.453
 2011SOL    HW110880   1.374   2.951   6.446
 2011SOL    HW210881   1.455   3.064   6.361
 2012SOL     OW10882   1.466   2.452   6.578
 2012SOL    HW110883   1.436   2.357   6.585
 2012SOL    HW210884   1.539   2.468   6.644
 2013SOL     OW10885   1.857   2.695   5.963
 2013SOL    HW110886   1.899   2.631   6.027
 2013SOL    HW210887   1.819   2.644   5.885
 2014SOL     OW10888   0.488   3.247   5.760
 2014SOL    HW110889   0.401   3.232   5.807
 2014SOL    HW210890   0.471   3.273   5.665
 2015SOL     OW10891   1.664   3.142   6.243
 2015SOL    HW110892   1.763   3.150   6.257
 2015SOL    HW210893   1.619   3.226   6.274
 2016SOL     OW10894   0.527   2.118   5.914
 2016SOL    HW110895   0.554   2.059   5.839
 2016SOL    HW210896   0.527   2.213   5.883
 2017SOL     OW10897   1.754   3.085   7.174
 2017SOL    HW110898   1.845   3.046   7.161
 2017SOL    HW210899   1.762   3.181   7.198
 2018SOL     OW10900   1.592   3.491   7.211
 2018SOL    HW110901   1.619   3.525   7.121
 2018SOL    HW210902   1.671   3.453   7.257
 2019SOL     OW10903   1.111   3.057   6.686
 2019SOL    HW110904   1.071   3.101   6.767
 2019SOL    HW210905   1.070   3.094   6.603
 2020SOL     OW10906   1.638   2.961   6.665
 2020SOL    HW110907   1.643   3.042   6.724
 2020SOL    HW210908   1.552   2.963   6.614
 2021SOL     OW10909   0.915   1.951   6.988
 2021SOL    HW110910   0.940   1.931   6.893
 2021SOL    HW210911   0.987   2.007   7.030
 2022SOL     OW10912   0.980   2.978   7.305
 2022SOL    HW110913   0.881   2.984   7.315
 2022SOL    HW210914   1.003   2.898   7.249
 2023SOL     OW10915   0.705   2.912   5.954
 2023SOL    HW110916   0.691   2.919   6.053
 2023SOL    HW210917   0.789   2.861   5.936
 2024SOL     OW10918   1.274   2.248   6.848
 2024SOL    HW110919   1.295   2.322   6.912
 2024SOL    HW210920   1.185   2.265   6.805
 2025SOL     OW10921   0.064   3.426   6.917
 2025SOL    HW110922   0.018   3.508   6.883
 2025SOL    HW210923   0.162   3.445   6.926
 2026SOL     OW10924   0.367   2.962   6.087
 2026SOL    HW110925   0.360   3.045   6.031
 2026SOL    HW210926   0.371   2.882   6.027
 2027SOL     OW10927   0.566   2.399   6.451
 2027SOL    HW110928   0.578   2.465   6.377
 2027SOL    HW210929   0.612   2.433   6.534
 2028SOL     OW10930   1.582   2.501   6.058
 2028SOL    HW110931   1.551   2.562   6.131
 2028SOL    HW210932   1.632   2.553   5.989
 2029SOL     OW10933   0.354   3.372   6.915
 2029SOL    HW110934   0.333   3.328   6.828
 2029SOL    HW210935   0.451   3.398   6.918
 2030SOL     OW10936   0.402   2.613   7.184
 2030SOL    HW110937   0.470   2.668   7.137
 2030SOL    HW210938   0.442   2.525   7.211
 2031SOL     OW10939   1.587   2.641   7.256
 2031SOL    HW110940   1.495   2.679   7.251
 2031SOL    HW210941   1.647   2.688   7.191
 2032SOL     OW10942   1.013   1.967   7.356
 2032SOL    HW110943   1.019   2.052   7.304
 2032SOL    HW210944   1.045   1.891   7.299
 2033SOL     OW10945   0.504   1.912   7.326
 2033SOL    HW110946   0.462   1.855   7.256
 2033SOL    HW210947   0.438   1.981   7.358
 2034SOL     OW10948   0.573   2.732   6.615
 2034SOL    HW110949   0.617   2.821   6.606
 2034SOL    HW210950   0.510   2.732   6.692
 2035SOL     OW10951   1.360   2.724   6.631
 2035SOL    HW110952   1.285   2.724   6.565
 2035SOL    HW210953   1.397   2.632   6.640
 2036SOL     OW10954   0.307   2.075   6.817
 2036SOL    HW110955   0.284   2.112   6.907
 2036SOL    HW210956   0.277   1.980   6.811
 2037SOL     OW10957   0.037   3.172   6.868
 2037SOL    HW110958   0.090   3.123   6.936
 2037SOL    HW210959   0.059   3.270   6.873
 2038SOL     OW10960   0.732   2.496   6.650
 2038SOL    HW110961   0.791   2.470   6.574
 2038SOL    HW210962   0.704   2.592   6.639
 2039SOL     OW10963   1.728   2.797   7.440
 2039SOL    HW110964   1.682   2.790   7.351
 2039SOL    HW210965   1.666   2.841   7.506
 2040SOL     OW10966   0.307   1.925   6.204
 2040SOL    HW110967   0.296   2.019   6.237
 2040SOL    HW210968   0.302   1.862   6.281
 2041SOL     OW10969   1.622   2.229   5.960
 2041SOL    HW110970   1.624   2.153   6.024
 2041SOL    HW210971   1.574   2.306   6.000
 2042SOL     OW10972   1.023   2.628   6.552
 2042SOL    HW110973   1.038   2.649   6.648
 2042SOL    HW210974   0.993   2.533   6.543
 2043SOL     OW10975   0.980   3.435   7.286
 2043SOL    HW110976   0.960   3.479   7.198
 2043SOL    HW210977   1.019   3.344   7.270
 2044SOL     OW10978   1.859   3.380   7.191
 2044SOL    HW110979   1.873   3.407   7.096
 2044SOL    HW210980   1.942   3.402   7.244
 2045SOL     OW10981   0.350   2.760   7.390
 2045SOL    HW110982   0.426   2.804   7.438
 2045SOL    HW210983   0.385   2.713   7.308
 2046SOL     OW10984   1.540   2.136   5.711
 2046SOL    HW110985   1.479   2.061   5.734
 2046SOL    HW210986   1.562   2.188   5.794
 2047SOL     OW10987   1.068   3.195   6.435
 2047SOL    HW110988   1.075   3.111   6.380
 2047SOL    HW210989   1.130   3.264   6.399
 2048SOL     OW10990   0.319   2.672   6.535
 2048SOL    HW110991   0.412   2.708   6.540
 2048SOL    HW210992   0.313   2.587   6.587
 2049SOL     OW10993   0.339   2.371   6.592
 2049SOL    HW110994   0.287   2.288   6.575
 2049SOL    HW210995   0.416   2.376   6.528
 2050SOL     OW10996   1.138   2.242   7.264
 2050SOL    HW110997   1.093   2.305   7.328
 2050SOL    HW210998   1.231   2.273   7.247
 2051SOL     OW10999   1.160   2.069   7.063
 2051SOL    HW111000   1.160   2.133   7.140
 2051SOL    HW211001   1.188   2.117   6.980
 2052SOL     OW11002   0.088   3.663   6.513
 2052SOL    HW111003   0.046   3.577   6.486
 2052SOL    HW211004   0.182   3.666   6.479
 2053SOL     OW11005   1.002   2.658   6.824
 2053SOL    HW111006   1.043   2.626   6.910
 2053SOL    HW211007   0.906   2.631   6.821
 2054SOL     OW11008   0.040   2.406   6.700
 2054SOL    HW111009   0.125   2.373   6.659
 2054SOL    HW211010   0.053   2.421   6.798
 2055SOL     OW11011   0.189   2.382   7.308
 2055SOL    HW111012   0.248   2.342   7.238
 2055SOL    HW211013   0.131   2.453   7.267
 2056SOL     OW11014   1.369   2.812   7.246
 2056SOL    HW111015   1.408   2.901   7.266
 2056SOL    HW211016   1.379   2.792   7.149
 2057SOL     OW11017   1.657   2.466   6.792
 2057SOL    HW111018   1.619   2.397   6.854
 2057SOL    HW211019   1.739   2.430   6.748
 2058SOL     OW11020   0.671   2.326   6.855
 2058SOL    HW111021   0.637   2.237   6.825
 2058SOL    HW211022   0.697   2.380   6.775
 2059SOL     OW11023   0.930   3.540   7.051
 2059SOL    HW111024   0.906   3.522   6.956
 2059SOL    HW211025   0.960   3.634   7.061
 2060SOL     OW11026   0.473   2.362   5.777
 2060SOL    HW111027   0.534   2.442   5.781
 2060SOL    HW211028   0.378   2.393   5.784
 2061SOL     OW11029   1.347   2.921   6.820
 2061SOL    HW111030   1.371   2.858   6.746
 2061SOL    HW211031   1.257   2.961   6.802
 2062SOL     OW11032   1.302   2.717   5.895
 2062SOL    HW111033   1.216   2.686   5.937
 2062SOL    HW211034   1.298   2.703   5.796
 2063SOL     OW11035   1.759   3.609   6.740
 2063SOL    HW111036   1.820   3.639   6.667
 2063SOL    HW211037   1.721   3.520   6.718
 2064SOL     OW11038   0.083   3.120   6.608
 2064SOL    HW111039   0.078   3.119   6.708
 2064SOL    HW211040   0.000   3.079   6.570
 2065SOL     OW11041   0.688   3.524   7.302
 2065SOL    HW111042   0.632   3.605   7.311
 2065SOL    HW211043   0.740   3.528   7.216
 2066SOL     OW11044   1.726   1.997   6.109
 2066SOL    HW111045   1.799   1.980   6.042
 2066SOL    HW211046   1.695   1.910   6.147
 2067SOL     OW11047   1.280   2.789   6.258
 2067SOL    HW111048   1.340   2.708   6.260
 2067SOL    HW211049   1.320   2.858   6.198
 2068SOL     OW11050   0.830   3.135   7.008
 2068SOL    HW111051   0.825   3.168   7.103
 2068SOL    HW211052   0.744   3.154   6.962
 2069SOL     OW11053   0.672   3.478   5.740
 2069SOL    HW111054   0.681   3.488   5.641
 2069SOL    HW211055   0.632   3.389   5.761
 2070SOL     OW11056   1.650   3.582   6.980
 2070SOL    HW111057   1.703   3.592   6.896
 2070SOL    HW211058   1.623   3.672   7.014
 2071SOL     OW11059   1.841   2.037   6.549
 2071SOL    HW111060   1.880   1.952   6.513
 2071SOL    HW211061   1.743   2.039   6.530
 2072SOL     OW11062   0.263   2.188   6.306
 2072SOL    HW111063   0.184   2.239   6.272
 2072SOL    HW211064   0.254   2.173   6.404
 2073SOL     OW11065   0.916   2.772   5.877
 2073SOL    HW111066   0.979   2.810   5.809
 2073SOL    HW211067   0.956   2.689   5.916
 2074SOL     OW11068   1.504   3.469   5.630
 2074SOL    HW111069   1.412   3.506   5.637
 2074SOL    HW211070   1.542   3.489   5.540
 2075SOL     OW11071   1.039   2.960   6.282
 2075SOL    HW111072   0.969   2.913   6.336
 2075SOL    HW211073   1.098   2.892   6.239
 2076SOL     OW11074   1.014   2.098   6.557
 2076SOL    HW111075   1.006   2.062   6.464
 2076SOL    HW211076   1.012   2.022   6.622
 2077SOL     OW11077   0.590   3.349   6.077
 2077SOL    HW111078   0.632   3.291   6.007
 2077SOL    HW211079   0.546   3.428   6.033
 2078SOL     OW11080   1.709   2.247   6.967
 2078SOL    HW111081   1.782   2.316   6.971
 2078SOL    HW211082   1.737   2.172   6.908
 2079SOL     OW11083   0.255   3.210   5.876
 2079SOL    HW111084   0.159   3.211   5.849
 2079SOL    HW211085   0.267   3.263   5.960
 2080SOL     OW11086   0.105   2.875   7.312
 2080SOL    HW111087   0.028   2.842   7.366
 2080SOL    HW211088   0.190   2.845   7.354
 2081SOL     OW11089   0.672   2.065   7.075
 2081SOL    HW111090   0.762   2.049   7.035
 2081SOL    HW211091   0.680   2.070   7.174
 2082SOL     OW11092   0.075   2.207   5.619
 2082SOL    HW111093  -0.017   2.179   5.590
 2082SOL    HW211094   0.106   2.284   5.563
 2083SOL     OW11095   1.440   2.718   6.984
 2083SOL    HW111096   1.383   2.770   6.921
 2083SOL    HW211097   1.536   2.730   6.960
 2084SOL     OW11098   0.072   2.028   5.904
 2084SOL    HW111099   0.055   2.111   5.850
 2084SOL    HW211100   0.162   1.991   5.882
 2085SOL     OW11101   1.183   3.197   5.705
 2085SOL    HW111102   1.084   3.186   5.707
 2085SOL    HW211103   1.217   3.212   5.798
 2086SOL     OW11104   1.493   3.629   6.545
 2086SOL    HW111105   1.526   3.693   6.476
 2086SOL    HW211106   1.559   3.623   6.620
 2087SOL     OW11107   0.716   2.427   7.294
 2087SOL    HW111108   0.735   2.492   7.368
 2087SOL    HW211109   0.776   2.347   7.303
 2088SOL     OW11110   1.450   3.082   7.219
 2088SOL    HW111111   1.441   3.072   7.318
 2088SOL    HW211112   1.546   3.075   7.193
 2089SOL     OW11113   0.390   3.603   7.146
 2089SOL    HW111114   0.299   3.644   7.144
 2089SOL    HW211115   0.383   3.509   7.178
 2090SOL     OW11116   1.674   2.745   6.840
 2090SOL    HW111117   1.647   2.656   6.803
 2090SOL    HW211118   1.675   2.813   6.767
 2091SOL     OW11119   0.594   2.607   6.238
 2091SOL    HW111120   0.644   2.692   6.219
 2091SOL    HW211121   0.506   2.609   6.190
 2092SOL     OW11122   1.730   2.796   7.103
 2092SOL    HW111123   1.768   2.887   7.118
 2092SOL    HW211124   1.722   2.779   7.004
 2093SOL     OW11125   0.859   3.236   5.602
 2093SOL    HW111126   0.813   3.251   5.690
 2093SOL    HW211127   0.903   3.321   5.572
 2094SOL     OW11128   0.661   3.652   6.539
 2094SOL    HW111129   0.615   3.740   6.526
 2094SOL    HW211130   0.760   3.664   6.532
 2095SOL     OW11131   0.859   2.818   6.447
 2095SOL    HW111132   0.913   2.749   6.495
 2095SOL    HW211133   0.827   2.887   6.513
 2096SOL     OW11134   1.083   2.846   5.673
 2096SOL    HW111135   1.060   2.899   5.591
 2096SOL    HW211136   1.164   2.790   5.654
 2097SOL     OW11137   1.861   3.431   6.437
 2097SOL    HW111138   1.790   3.419   6.367
 2097SOL    HW211139   1.862   3.352   6.497
 2098SOL     OW11140   0.221   3.176   7.430
 2098SOL    HW111141   0.156   3.103   7.409
 2098SOL    HW211142   0.225   3.190   7.528
 2099SOL     OW11143   0.079   3.102   6.239
 2099SOL    HW111144   0.078   3.055   6.327
 2099SOL    HW211145   0.161   3.074   6.188
 2100SOL     OW11146   0.672   3.253   7.210
 2100SOL    HW111147   0.594   3.203   7.248
 2100SOL    HW211148   0.669   3.348   7.241
 2101SOL     OW11149   1.824   2.054   6.813
 2101SOL    HW111150   1.820   1.964   6.857
 2101SOL    HW211151   1.827   2.043   6.714
 2102SOL     OW11152   0.428   2.286   6.106
 2102SOL    HW111153   0.458   2.214   6.044
 2102SOL    HW211154   0.389   2.246   6.189
 2103SOL     OW11155   1.705   3.349   6.690
 2103SOL    HW111156   1.612   3.324   6.663
 2103SOL    HW211157   1.731   3.299   6.772
 2104SOL     OW11158   0.317   2.409   6.866
 2104SOL    HW111159   0.355   2.350   6.938
 2104SOL    HW211160   0.357   2.383   6.778
 2105SOL     OW11161   1.424   2.076   6.698
 2105SOL    HW111162   1.476   2.011   6.753
 2105SOL    HW211163   1.375   2.139   6.759
 2106SOL     OW11164   1.001   1.896   6.740
 2106SOL    HW111165   0.938   1.824   6.709
 2106SOL    HW211166   1.094   1.860   6.740
 2107SOL     OW11167   0.770   3.192   5.887
 2107SOL    HW111168   0.724   3.105   5.904
 2107SOL    HW211169   0.861   3.189   5.928
 2108SOL     OW11170   0.618   3.429   6.870
 2108SOL    HW111171   0.613   3.511   6.927
 2108SOL    HW211172   0.707   3.426   6.825
 2109SOL     OW11173   1.352   1.914   5.754
 2109SOL    HW111174   1.387   1.873   5.670
 2109SOL    HW211175   1.262   1.876   5.774
 2110SOL     OW11176   1.300   2.315   6.277
 2110SOL    HW111177   1.241   2.395   6.281
 2110SOL    HW211178   1.315   2.280   6.370
 2111SOL     OW11179   1.593   2.083   6.468
 2111SOL    HW111180   1.509   2.082   6.522
 2111SOL    HW211181   1.595   2.166   6.412
 2112SOL     OW11182   0.039   2.939   5.886
 2112SOL    HW111183   0.138   2.928   5.877
 2112SOL    HW211184  -0.001   2.853   5.918
 2113SOL     OW11185   0.875   3.508   5.923
 2113SOL    HW111186   0.798   3.473   5.869
 2113SOL    HW211187   0.843   3.579   5.985
 2114SOL     OW11188   0.230   2.490   7.561
 2114SOL    HW111189   0.137   2.488   7.598
 2114SOL    HW211190   0.231   2.451   7.469
 2115SOL     OW11191   0.225   2.137   8.444
 2115SOL    HW111192   0.260   2.120   8.536
 2115SOL    HW211193   0.137   2.092   8.432
 2116SOL     OW11194   0.019   2.230   8.095
 2116SOL    HW111195  -0.063   2.273   8.134
 2116SOL    HW211196  -0.009   2.157   8.032
 2117SOL     OW11197   1.555   3.373   8.151
 2117SOL    HW111198   1.498   3.357   8.232
 2117SOL    HW211199   1.496   3.383   8.071
 2118SOL     OW11200   1.135   2.565   8.165
 2118SOL    HW111201   1.192   2.643   8.140
 2118SOL    HW211202   1.075   2.591   8.241
 2119SOL     OW11203   1.755   2.469   7.679
 2119SOL    HW111204   1.743   2.456   7.580
 2119SOL    HW211205   1.725   2.388   7.728
 2120SOL     OW11206   0.768   3.006   8.471
 2120SOL    HW111207   0.690   3.023   8.531
 2120SOL    HW211208   0.802   3.093   8.435
 2121SOL     OW11209   0.850   2.660   9.271
 2121SOL    HW111210   0.846   2.736   9.336
 2121SOL    HW211211   0.872   2.696   9.180
 2122SOL     OW11212   0.685   2.874   8.113
 2122SOL    HW111213   0.754   2.858   8.183
 2122SOL    HW211214   0.612   2.931   8.151
 2123SOL     OW11215   0.686   3.023   9.251
 2123SOL    HW111216   0.746   3.102   9.265
 2123SOL    HW211217   0.600   3.054   9.210
 2124SOL     OW11218   1.460   3.367   8.787
 2124SOL    HW111219   1.484   3.461   8.813
 2124SOL    HW211220   1.444   3.313   8.869
 2125SOL     OW11221   0.438   2.254   8.947
 2125SOL    HW111222   0.520   2.198   8.956
 2125SOL    HW211223   0.357   2.196   8.951
 2126SOL     OW11224   1.603   2.309   8.185
 2126SOL    HW111225   1.529   2.355   8.135
 2126SOL    HW211226   1.654   2.377   8.238
 2127SOL     OW11227   0.230   3.296   7.986
 2127SOL    HW111228   0.204   3.392   7.986
 2127SOL    HW211229   0.159   3.242   8.031
 2128SOL     OW11230   0.606   2.826   7.571
 2128SOL    HW111231   0.613   2.910   7.517
 2128SOL    HW211232   0.652   2.839   7.659
 2129SOL     OW11233   1.594   1.976   8.928
 2129SOL    HW111234   1.576   2.043   8.856
 2129SOL    HW211235   1.591   2.022   9.017
 2130SOL     OW11236   0.122   2.505   8.011
 2130SOL    HW111237   0.077   2.417   8.028
 2130SOL    HW211238   0.121   2.559   8.095
 2131SOL     OW11239   1.842   3.629   7.807
 2131SOL    HW111240   1.896   3.600   7.887
 2131SOL    HW211241   1.872   3.719   7.778
 2132SOL     OW11242   1.689   2.784   8.060
 2132SOL    HW111243   1.784   2.755   8.068
 2132SOL    HW211244   1.681   2.849   7.985
 2133SOL     OW11245   0.113   2.599   9.045
 2133SOL    HW111246   0.201   2.586   9.090
 2133SOL    HW211247   0.100   2.696   9.023
 2134SOL     OW11248   0.613   3.227   8.174
 2134SOL    HW111249   0.564   3.140   8.183
 2134SOL    HW211250   0.590   3.270   8.087
 2135SOL     OW11251   1.293   3.090   8.871
 2135SOL    HW111252   1.330   3.017   8.813
 2135SOL    HW211253   1.345   3.095   8.956
 2136SOL     OW11254   0.809   1.866   7.950
 2136SOL    HW111255   0.849   1.957   7.941
 2136SOL    HW211256   0.709   1.874   7.956
 2137SOL     OW11257   0.197   2.838   8.712
 2137SOL    HW111258   0.286   2.793   8.698
 2137SOL    HW211259   0.124   2.773   8.693
 2138SOL     OW11260   1.525   2.861   7.638
 2138SOL    HW111261   1.462   2.785   7.651
 2138SOL    HW211262   1.573   2.879   7.724
 2139SOL     OW11263   1.187   3.654   9.064
 2139SOL    HW111264   1.211   3.714   8.988
 2139SOL    HW211265   1.194   3.559   9.034
 2140SOL     OW11266   0.317   2.113   9.249
 2140SOL    HW111267   0.388   2.184   9.255
 2140SOL    HW211268   0.229   2.152   9.277
 2141SOL     OW11269   1.466   3.279   8.401
 2141SOL    HW111270   1.407   3.285   8.481
 2141SOL    HW211271   1.451   3.191   8.355
 2142SOL     OW11272   1.667   3.576   8.020
 2142SOL    HW111273   1.626   3.553   7.932
 2142SOL    HW211274   1.649   3.502   8.085
 2143SOL     OW11275   0.598   2.591   7.718
 2143SOL    HW111276   0.622   2.660   7.650
 2143SOL    HW211277   0.520   2.624   7.772
 2144SOL     OW11278   1.281   2.207   8.392
 2144SOL    HW111279   1.195   2.157   8.379
 2144SOL    HW211280   1.343   2.153   8.448
 2145SOL     OW11281   1.576   3.524   7.755
 2145SOL    HW111282   1.665   3.570   7.758
 2145SOL    HW211283   1.555   3.500   7.660
 2146SOL     OW11284   0.807   2.467   8.913
 2146SOL    HW111285   0.760   2.464   9.002
 2146SOL    HW211286   0.756   2.412   8.847
 2147SOL     OW11287   1.394   2.331   9.122
 2147SOL    HW111288   1.374   2.374   9.210
 2147SOL    HW211289   1.472   2.269   9.131
 2148SOL     OW11290   0.973   2.752   9.020
 2148SOL    HW111291   1.019   2.668   8.991
 2148SOL    HW211292   0.917   2.786   8.945
 2149SOL     OW11293   0.991   2.272   8.690
 2149SOL    HW111294   0.914   2.306   8.744
 2149SOL    HW211295   0.957   2.221   8.611
 2150SOL     OW11296   1.041   2.563   7.877
 2150SOL    HW111297   1.067   2.559   7.973
 2150SOL    HW211298   0.956   2.512   7.863
 2151SOL     OW11299   0.076   2.673   8.237
 2151SOL    HW111300   0.175   2.661   8.246
 2151SOL    HW211301   0.052   2.768   8.258
 2152SOL     OW11302   0.130   3.683   9.019
 2152SOL    HW111303   0.120   3.668   9.118
 2152SOL    HW211304   0.044   3.719   8.983
 2153SOL     OW11305   0.865   2.210   7.643
 2153SOL    HW111306   0.924   2.273   7.594
 2153SOL    HW211307   0.884   2.116   7.614
 2154SOL     OW11308   1.719   2.447   9.279
 2154SOL    HW111309   1.693   2.536   9.243
 2154SOL    HW211310   1.717   2.379   9.206
 2155SOL     OW11311   1.362   3.006   7.993
 2155SOL    HW111312   1.445   2.977   7.945
 2155SOL    HW211313   1.313   3.073   7.937
 2156SOL     OW11314   0.550   2.058   8.333
 2156SOL    HW111315   0.545   2.053   8.433
 2156SOL    HW211316   0.552   2.154   8.304
 2157SOL     OW11317   1.008   3.318   7.925
 2157SOL    HW111318   0.962   3.390   7.873
 2157SOL    HW211319   1.004   3.338   8.023
 2158SOL     OW11320   0.351   3.663   8.301
 2158SOL    HW111321   0.401   3.577   8.307
 2158SOL    HW211322   0.416   3.740   8.298
 2159SOL     OW11323   1.795   2.928   8.321
 2159SOL    HW111324   1.733   2.913   8.245
 2159SOL    HW211325   1.743   2.939   8.406
 2160SOL     OW11326   1.227   3.412   8.954
 2160SOL    HW111327   1.233   3.335   9.018
 2160SOL    HW211328   1.175   3.386   8.874
 2161SOL     OW11329   0.321   2.805   7.690
 2161SOL    HW111330   0.403   2.844   7.648
 2161SOL    HW211331   0.294   2.723   7.641
 2162SOL     OW11332   1.458   2.597   8.176
 2162SOL    HW111333   1.453   2.532   8.251
 2162SOL    HW211334   1.538   2.656   8.189
 2163SOL     OW11335   0.461   3.128   9.175
 2163SOL    HW111336   0.411   3.129   9.089
 2163SOL    HW211337   0.398   3.110   9.251
 2164SOL     OW11338   1.111   3.638   7.685
 2164SOL    HW111339   1.051   3.576   7.735
 2164SOL    HW211340   1.142   3.594   7.600
 2165SOL     OW11341   0.202   2.147   8.946
 2165SOL    HW111342   0.122   2.207   8.933
 2165SOL    HW211343   0.192   2.098   9.032
 2166SOL     OW11344   1.632   3.239   7.529
 2166SOL    HW111345   1.600   3.333   7.519
 2166SOL    HW211346   1.556   3.176   7.517
 2167SOL     OW11347   1.400   1.969   7.874
 2167SOL    HW111348   1.376   1.932   7.784
 2167SOL    HW211349   1.499   1.985   7.878
 2168SOL     OW11350   0.249   3.647   8.689
 2168SOL    HW111351   0.306   3.582   8.739
 2168SOL    HW211352   0.233   3.614   8.596
 2169SOL     OW11353   0.382   2.562   7.928
 2169SOL    HW111354   0.427   2.472   7.925
 2169SOL    HW211355   0.288   2.551   7.961
 2170SOL     OW11356   1.547   2.084   9.177
 2170SOL    HW111357   1.542   2.121   9.269
 2170SOL    HW211358   1.475   2.015   9.165
 2171SOL     OW11359   0.614   1.984   7.565
 2171SOL    HW111360   0.712   1.962   7.572
 2171SOL    HW211361   0.583   1.967   7.472
 2172SOL     OW11362   0.781   2.126   9.197
 2172SOL    HW111363   0.848   2.065   9.240
 2172SOL    HW211364   0.708   2.145   9.262
 2173SOL     OW11365   1.351   2.452   8.881
 2173SOL    HW111366   1.379   2.409   8.966
 2173SOL    HW211367   1.376   2.548   8.882
 2174SOL     OW11368   0.803   3.264   8.372
 2174SOL    HW111369   0.893   3.278   8.330
 2174SOL    HW211370   0.732   3.266   8.301
 2175SOL     OW11371   0.922   2.365   8.347
 2175SOL    HW111372   0.897   2.356   8.251
 2175SOL    HW211373   0.970   2.283   8.378
 2176SOL     OW11374   0.539   1.926   7.960
 2176SOL    HW111375   0.458   1.927   8.018
 2176SOL    HW211376   0.542   2.009   7.905
 2177SOL     OW11377   1.434   3.050   7.489
 2177SOL    HW111378   1.466   2.974   7.546
 2177SOL    HW211379   1.342   3.077   7.519
 2178SOL     OW11380   0.935   2.098   7.928
 2178SOL    HW111381   0.887   2.139   7.850
 2178SOL    HW211382   1.034   2.096   7.909
 2179SOL     OW11383   1.076   2.545   8.912
 2179SOL    HW111384   0.996   2.484   8.915
 2179SOL    HW211385   1.157   2.492   8.888
 2180SOL     OW11386   1.227   3.432   8.241
 2180SOL    HW111387   1.248   3.506   8.176
 2180SOL    HW211388   1.295   3.432   8.314
 2181SOL     OW11389   0.459   3.014   8.189
 2181SOL    HW111390   0.388   2.987   8.254
 2181SOL    HW211391   0.433   2.986   8.096
 2182SOL     OW11392   1.271   3.659   8.039
 2182SOL    HW111393   1.315   3.723   7.975
 2182SOL    HW211394   1.221   3.711   8.109
 2183SOL     OW11395   1.032   2.411   7.464
 2183SOL    HW111396   0.991   2.493   7.425
 2183SOL    HW211397   1.096   2.437   7.537
 2184SOL     OW11398   0.078   2.418   8.834
 2184SOL    HW111399   0.170   2.417   8.793
 2184SOL    HW211400   0.072   2.492   8.901
 2185SOL     OW11401   0.561   2.084   8.595
 2185SOL    HW111402   0.599   2.000   8.632
 2185SOL    HW211403   0.473   2.103   8.639
 2186SOL     OW11404   0.866   2.316   8.090
 2186SOL    HW111405   0.834   2.388   8.028
 2186SOL    HW211406   0.890   2.235   8.037
 2187SOL     OW11407   1.017   1.901   8.201
 2187SOL    HW111408   0.945   1.906   8.132
 2187SOL    HW211409   0.993   1.832   8.270
 2188SOL     OW11410   1.429   3.035   8.315
 2188SOL    HW111411   1.374   2.951   8.308
 2188SOL    HW211412   1.455   3.064   8.223
 2189SOL     OW11413   1.466   2.452   8.440
 2189SOL    HW111414   1.436   2.357   8.447
 2189SOL    HW211415   1.539   2.468   8.506
 2190SOL     OW11416   1.857   2.695   7.825
 2190SOL    HW111417   1.899   2.631   7.889
 2190SOL    HW211418   1.819   2.644   7.747
 2191SOL     OW11419   1.664   3.142   8.105
 2191SOL    HW111420   1.763   3.150   8.119
 2191SOL    HW211421   1.619   3.226   8.136
 2192SOL     OW11422   1.390   2.437   7.526
 2192SOL    HW111423   1.336   2.416   7.607
 2192SOL    HW211424   1.481   2.396   7.535
 2193SOL     OW11425   0.527   2.118   7.776
 2193SOL    HW111426   0.554   2.059   7.701
 2193SOL    HW211427   0.527   2.213   7.745
 2194SOL     OW11428   1.754   3.085   9.036
 2194SOL    HW111429   1.845   3.046   9.023
 2194SOL    HW211430   1.762   3.181   9.060
 2195SOL     OW11431   1.064   3.209   8.788
 2195SOL    HW111432   0.984   3.186   8.843
 2195SOL    HW211433   1.147   3.183   8.837
 2196SOL     OW11434   1.592   3.491   9.073
 2196SOL    HW111435   1.619   3.525   8.983
 2196SOL    HW211436   1.671   3.453   9.119
 2197SOL     OW11437   1.111   3.057   8.548
 2197SOL    HW111438   1.071   3.101   8.629
 2197SOL    HW211439   1.070   3.094   8.465
 2198SOL     OW11440   1.638   2.961   8.527
 2198SOL    HW111441   1.643   3.042   8.586
 2198SOL    HW211442   1.552   2.963   8.476
 2199SOL     OW11443   0.915   1.951   8.850
 2199SOL    HW111444   0.940   1.931   8.755
 2199SOL    HW211445   0.987   2.007   8.892
 2200SOL     OW11446   0.980   2.978   9.167
 2200SOL    HW111447   0.881   2.984   9.177
 2200SOL    HW211448   1.003   2.898   9.111
 2201SOL     OW11449   0.705   2.912   7.816
 2201SOL    HW111450   0.691   2.919   7.915
 2201SOL    HW211451   0.789   2.861   7.798
 2202SOL     OW11452   0.410   2.675   8.699
 2202SOL    HW111453   0.496   2.687   8.749
 2202SOL    HW211454   0.368   2.588   8.726
 2203SOL     OW11455   1.274   2.248   8.710
 2203SOL    HW111456   1.295   2.322   8.774
 2203SOL    HW211457   1.185   2.265   8.667
 2204SOL     OW11458   0.367   2.962   7.949
 2204SOL    HW111459   0.360   3.045   7.893
 2204SOL    HW211460   0.371   2.882   7.889
 2205SOL     OW11461   1.252   3.210   7.836
 2205SOL    HW111462   1.302   3.287   7.876
 2205SOL    HW211463   1.157   3.212   7.868
 2206SOL     OW11464   1.272   3.307   8.590
 2206SOL    HW111465   1.319   3.320   8.677
 2206SOL    HW211466   1.206   3.233   8.599
 2207SOL     OW11467   1.582   2.501   7.920
 2207SOL    HW111468   1.551   2.562   7.993
 2207SOL    HW211469   1.632   2.553   7.851
 2208SOL     OW11470   0.402   2.613   9.046
 2208SOL    HW111471   0.470   2.668   8.999
 2208SOL    HW211472   0.442   2.525   9.073
 2209SOL     OW11473   1.587   2.641   9.118
 2209SOL    HW111474   1.495   2.679   9.113
 2209SOL    HW211475   1.647   2.688   9.053
 2210SOL     OW11476   1.013   1.967   9.218
 2210SOL    HW111477   1.019   2.052   9.166
 2210SOL    HW211478   1.045   1.891   9.161
 2211SOL     OW11479   0.504   1.912   9.188
 2211SOL    HW111480   0.462   1.855   9.118
 2211SOL    HW211481   0.438   1.981   9.220
 2212SOL     OW11482   0.573   2.732   8.477
 2212SOL    HW111483   0.617   2.821   8.468
 2212SOL    HW211484   0.510   2.732   8.554
 2213SOL     OW11485   1.360   2.724   8.493
 2213SOL    HW111486   1.285   2.724   8.427
 2213SOL    HW211487   1.397   2.632   8.502
 2214SOL     OW11488   1.209   2.387   7.723
 2214SOL    HW111489   1.222   2.303   7.777
 2214SOL    HW211490   1.180   2.461   7.783
 2215SOL     OW11491   0.307   2.075   8.679
 2215SOL    HW111492   0.284   2.112   8.769
 2215SOL    HW211493   0.277   1.980   8.673
 2216SOL     OW11494   0.732   2.496   8.512
 2216SOL    HW111495   0.791   2.470   8.436
 2216SOL    HW211496   0.704   2.592   8.501
 2217SOL     OW11497   1.728   2.797   9.302
 2217SOL    HW111498   1.682   2.790   9.213
 2217SOL    HW211499   1.666   2.841   9.368
 2218SOL     OW11500   0.307   1.925   8.066
 2218SOL    HW111501   0.296   2.019   8.099
 2218SOL    HW211502   0.302   1.862   8.143
 2219SOL     OW11503   1.622   2.229   7.822
 2219SOL    HW111504   1.624   2.153   7.886
 2219SOL    HW211505   1.574   2.306   7.862
 2220SOL     OW11506   1.023   2.628   8.414
 2220SOL    HW111507   1.038   2.649   8.510
 2220SOL    HW211508   0.993   2.533   8.405
 2221SOL     OW11509   0.980   3.435   9.148
 2221SOL    HW111510   0.960   3.479   9.060
 2221SOL    HW211511   1.019   3.344   9.132
 2222SOL     OW11512   1.859   3.380   9.053
 2222SOL    HW111513   1.873   3.407   8.958
 2222SOL    HW211514   1.942   3.402   9.106
 2223SOL     OW11515   0.350   2.760   9.252
 2223SOL    HW111516   0.426   2.804   9.300
 2223SOL    HW211517   0.385   2.713   9.170
 2224SOL     OW11518   1.540   2.136   7.573
 2224SOL    HW111519   1.479   2.061   7.596
 2224SOL    HW211520   1.562   2.188   7.656
 2225SOL     OW11521   1.303   2.700   7.490
 2225SOL    HW111522   1.337   2.607   7.505
 2225SOL    HW211523   1.321   2.727   7.395
 2226SOL     OW11524   1.068   3.195   8.297
 2226SOL    HW111525   1.075   3.111   8.242
 2226SOL    HW211526   1.130   3.264   8.261
 2227SOL     OW11527   0.319   2.672   8.397
 2227SOL    HW111528   0.412   2.708   8.402
 2227SOL    HW211529   0.313   2.587   8.449
 2228SOL     OW11530   0.339   2.371   8.454
 2228SOL    HW111531   0.287   2.288   8.437
 2228SOL    HW211532   0.416   2.376   8.390
 2229SOL     OW11533   1.138   2.242   9.126
 2229SOL    HW111534   1.093   2.305   9.190
 2229SOL    HW211535   1.231   2.273   9.109
 2230SOL     OW11536   1.160   2.069   8.925
 2230SOL    HW111537   1.160   2.133   9.002
 2230SOL    HW211538   1.188   2.117   8.842
 2231SOL     OW11539   0.088   3.663   8.375
 2231SOL    HW111540   0.046   3.577   8.348
 2231SOL    HW211541   0.182   3.666   8.341
 2232SOL     OW11542   0.504   3.430   8.358
 2232SOL    HW111543   0.570   3.504   8.367
 2232SOL    HW211544   0.548   3.351   8.316
 2233SOL     OW11545   1.002   2.658   8.686
 2233SOL    HW111546   1.043   2.626   8.772
 2233SOL    HW211547   0.906   2.631   8.683
 2234SOL     OW11548   0.040   2.406   8.562
 2234SOL    HW111549   0.125   2.373   8.521
 2234SOL    HW211550   0.053   2.421   8.660
 2235SOL     OW11551   0.189   2.382   9.170
 2235SOL    HW111552   0.248   2.342   9.100
 2235SOL    HW211553   0.131   2.453   9.129
 2236SOL     OW11554   1.369   2.812   9.108
 2236SOL    HW111555   1.408   2.901   9.128
 2236SOL    HW211556   1.379   2.792   9.011
 2237SOL     OW11557   0.815   2.434   7.773
 2237SOL    HW111558   0.822   2.345   7.727
 2237SOL    HW211559   0.721   2.468   7.765
 2238SOL     OW11560   1.657   2.466   8.654
 2238SOL    HW111561   1.619   2.397   8.716
 2238SOL    HW211562   1.739   2.430   8.610
 2239SOL     OW11563   0.252   3.426   9.192
 2239SOL    HW111564   0.222   3.483   9.268
 2239SOL    HW211565   0.245   3.329   9.218
 2240SOL     OW11566   0.671   2.326   8.717
 2240SOL    HW111567   0.637   2.237   8.687
 2240SOL    HW211568   0.697   2.380   8.637
 2241SOL     OW11569   0.473   2.362   7.639
 2241SOL    HW111570   0.534   2.442   7.643
 2241SOL    HW211571   0.378   2.393   7.646
 2242SOL     OW11572   0.159   2.999   8.914
 2242SOL    HW111573   0.181   2.938   8.990
 2242SOL    HW211574   0.169   2.950   8.828
 2243SOL     OW11575   1.347   2.921   8.682
 2243SOL    HW111576   1.371   2.858   8.608
 2243SOL    HW211577   1.257   2.961   8.664
 2244SOL     OW11578   1.302   2.717   7.757
 2244SOL    HW111579   1.216   2.686   7.799
 2244SOL    HW211580   1.298   2.703   7.658
 2245SOL     OW11581   1.759   3.609   8.602
 2245SOL    HW111582   1.820   3.639   8.529
 2245SOL    HW211583   1.721   3.520   8.580
 2246SOL     OW11584   0.083   3.120   8.470
 2246SOL    HW111585   0.078   3.119   8.570
 2246SOL    HW211586   0.000   3.079   8.432
 2247SOL     OW11587   1.726   1.997   7.971
 2247SOL    HW111588   1.799   1.980   7.904
 2247SOL    HW211589   1.695   1.910   8.009
 2248SOL     OW11590   1.388   3.435   7.925
 2248SOL    HW111591   1.455   3.447   7.851
 2248SOL    HW211592   1.348   3.524   7.948
 2249SOL     OW11593   0.130   3.656   9.299
 2249SOL    HW111594   0.089   3.582   9.352
 2249SOL    HW211595   0.194   3.707   9.357
 2250SOL     OW11596   1.280   2.789   8.120
 2250SOL    HW111597   1.340   2.708   8.122
 2250SOL    HW211598   1.320   2.858   8.060
 2251SOL     OW11599   0.830   3.135   8.870
 2251SOL    HW111600   0.825   3.168   8.965
 2251SOL    HW211601   0.744   3.154   8.824
 2252SOL     OW11602   0.672   3.478   7.602
 2252SOL    HW111603   0.681   3.488   7.503
 2252SOL    HW211604   0.632   3.389   7.623
 2253SOL     OW11605   1.650   3.582   8.842
 2253SOL    HW111606   1.703   3.592   8.758
 2253SOL    HW211607   1.623   3.672   8.876
 2254SOL     OW11608   1.841   2.037   8.411
 2254SOL    HW111609   1.880   1.952   8.375
 2254SOL    HW211610   1.743   2.039   8.392
 2255SOL     OW11611   0.263   2.188   8.168
 2255SOL    HW111612   0.184   2.239   8.134
 2255SOL    HW211613   0.254   2.173   8.266
 2256SOL     OW11614   1.194   3.474   7.479
 2256SOL    HW111615   1.200   3.381   7.516
 2256SOL    HW211616   1.135   3.474   7.399
 2257SOL     OW11617   0.822   2.864   8.820
 2257SOL    HW111618   0.862   2.863   8.728
 2257SOL    HW211619   0.832   2.956   8.860
 2258SOL     OW11620   0.916   2.772   7.739
 2258SOL    HW111621   0.979   2.810   7.671
 2258SOL    HW211622   0.956   2.689   7.778
 2259SOL     OW11623   1.504   3.469   7.492
 2259SOL    HW111624   1.412   3.506   7.499
 2259SOL    HW211625   1.542   3.489   7.402
 2260SOL     OW11626   1.614   3.154   8.737
 2260SOL    HW111627   1.674   3.157   8.817
 2260SOL    HW211628   1.539   3.218   8.750
 2261SOL     OW11629   1.039   2.960   8.144
 2261SOL    HW111630   0.969   2.913   8.198
 2261SOL    HW211631   1.098   2.892   8.101
 2262SOL     OW11632   1.014   2.098   8.419
 2262SOL    HW111633   1.006   2.062   8.326
 2262SOL    HW211634   1.012   2.022   8.484
 2263SOL     OW11635   0.590   3.349   7.939
 2263SOL    HW111636   0.632   3.291   7.869
 2263SOL    HW211637   0.546   3.428   7.895
 2264SOL     OW11638   1.709   2.247   8.829
 2264SOL    HW111639   1.782   2.316   8.833
 2264SOL    HW211640   1.737   2.172   8.770
 2265SOL     OW11641   0.105   2.875   9.174
 2265SOL    HW111642   0.028   2.842   9.228
 2265SOL    HW211643   0.190   2.845   9.216
 2266SOL     OW11644   0.672   2.065   8.937
 2266SOL    HW111645   0.762   2.049   8.897
 2266SOL    HW211646   0.680   2.070   9.036
 2267SOL     OW11647   0.075   2.207   7.481
 2267SOL    HW111648  -0.017   2.179   7.452
 2267SOL    HW211649   0.106   2.284   7.425
 2268SOL     OW11650   1.440   2.718   8.846
 2268SOL    HW111651   1.383   2.770   8.783
 2268SOL    HW211652   1.536   2.730   8.822
 2269SOL     OW11653   1.183   3.197   7.567
 2269SOL    HW111654   1.084   3.186   7.569
 2269SOL    HW211655   1.217   3.212   7.660
 2270SOL     OW11656   0.613   2.704   8.879
 2270SOL    HW111657   0.669   2.785   8.862
 2270SOL    HW211658   0.672   2.624   8.882
 2271SOL     OW11659   1.493   3.629   8.407
 2271SOL    HW111660   1.526   3.693   8.338
 2271SOL    HW211661   1.559   3.623   8.482
 2272SOL     OW11662   0.716   2.427   9.156
 2272SOL    HW111663   0.735   2.492   9.230
 2272SOL    HW211664   0.776   2.347   9.165
 2273SOL     OW11665   1.450   3.082   9.081
 2273SOL    HW111666   1.441   3.072   9.180
 2273SOL    HW211667   1.546   3.075   9.055
 2274SOL     OW11668   0.390   3.603   9.008
 2274SOL    HW111669   0.299   3.644   9.006
 2274SOL    HW211670   0.383   3.509   9.040
 2275SOL     OW11671   1.674   2.745   8.702
 2275SOL    HW111672   1.647   2.656   8.665
 2275SOL    HW211673   1.675   2.813   8.629
 2276SOL     OW11674   1.225   2.187   7.897
 2276SOL    HW111675   1.290   2.113   7.886
 2276SOL    HW211676   1.245   2.237   7.981
 2277SOL     OW11677   0.594   2.607   8.100
 2277SOL    HW111678   0.644   2.692   8.081
 2277SOL    HW211679   0.506   2.609   8.052
 2278SOL     OW11680   1.777   2.204   9.090
 2278SOL    HW111681   1.760   2.235   8.996
 2278SOL    HW211682   1.693   2.167   9.128
 2279SOL     OW11683   1.730   2.796   8.965
 2279SOL    HW111684   1.768   2.887   8.980
 2279SOL    HW211685   1.722   2.779   8.866
 2280SOL     OW11686   0.859   3.236   7.464
 2280SOL    HW111687   0.813   3.251   7.552
 2280SOL    HW211688   0.903   3.321   7.434
 2281SOL     OW11689   0.859   2.818   8.309
 2281SOL    HW111690   0.913   2.749   8.357
 2281SOL    HW211691   0.827   2.887   8.375
 2282SOL     OW11692   1.083   2.846   7.535
 2282SOL    HW111693   1.060   2.899   7.453
 2282SOL    HW211694   1.164   2.790   7.516
 2283SOL     OW11695   1.861   3.431   8.299
 2283SOL    HW111696   1.790   3.419   8.229
 2283SOL    HW211697   1.862   3.352   8.359
 2284SOL     OW11698   0.221   3.176   9.292
 2284SOL    HW111699   0.156   3.103   9.271
 2284SOL    HW211700   0.225   3.190   9.390
 2285SOL     OW11701   0.079   3.102   8.101
 2285SOL    HW111702   0.078   3.055   8.189
 2285SOL    HW211703   0.161   3.074   8.050
 2286SOL     OW11704   0.672   3.253   9.072
 2286SOL    HW111705   0.594   3.203   9.110
 2286SOL    HW211706   0.669   3.348   9.103
 2287SOL     OW11707   0.428   2.286   7.968
 2287SOL    HW111708   0.458   2.214   7.906
 2287SOL    HW211709   0.389   2.246   8.051
 2288SOL     OW11710   1.705   3.349   8.552
 2288SOL    HW111711   1.612   3.324   8.525
 2288SOL    HW211712   1.731   3.299   8.634
 2289SOL     OW11713   0.317   2.409   8.728
 2289SOL    HW111714   0.355   2.350   8.800
 2289SOL    HW211715   0.357   2.383   8.640
 2290SOL     OW11716   0.812   3.448   8.135
 2290SOL    HW111717   0.844   3.458   8.041
 2290SOL    HW211718   0.733   3.386   8.137
 2291SOL     OW11719   1.424   2.076   8.560
 2291SOL    HW111720   1.476   2.011   8.615
 2291SOL    HW211721   1.375   2.139   8.621
 2292SOL     OW11722   1.001   1.896   8.602
 2292SOL    HW111723   0.938   1.824   8.571
 2292SOL    HW211724   1.094   1.860   8.602
 2293SOL     OW11725   0.770   3.192   7.749
 2293SOL    HW111726   0.724   3.105   7.766
 2293SOL    HW211727   0.861   3.189   7.790
 2294SOL     OW11728   0.618   3.429   8.732
 2294SOL    HW111729   0.613   3.511   8.789
 2294SOL    HW211730   0.707   3.426   8.687
 2295SOL     OW11731   1.352   1.914   7.616
 2295SOL    HW111732   1.387   1.873   7.532
 2295SOL    HW211733   1.262   1.876   7.636
 2296SOL     OW11734   1.300   2.315   8.139
 2296SOL    HW111735   1.241   2.395   8.143
 2296SOL    HW211736   1.315   2.280   8.232
 2297SOL     OW11737   1.593   2.083   8.330
 2297SOL    HW111738   1.509   2.082   8.384
 2297SOL    HW211739   1.595   2.166   8.274
 2298SOL     OW11740   0.039   2.939   7.748
 2298SOL    HW111741   0.138   2.928   7.739
 2298SOL    HW211742  -0.001   2.853   7.780
 2299SOL     OW11743   0.875   3.508   7.785
 2299SOL    HW111744   0.798   3.473   7.731
 2299SOL    HW211745   0.843   3.579   7.847
 2300SOL     OW11746   0.230   2.490   9.423
 2300SOL    HW111747   0.137   2.488   9.460
 2300SOL    HW211748   0.231   2.451   9.331
 2301SOL     OW11749   1.755   2.469   9.541
 2301SOL    HW111750   1.743   2.456   9.442
 2301SOL    HW211751   1.725   2.388   9.590
 2302SOL     OW11752   0.231   3.575   9.793
 2302SOL    HW111753   0.265   3.652   9.847
 2302SOL    HW211754   0.275   3.575   9.703
 2303SOL     OW11755   0.230   3.296   9.848
 2303SOL    HW111756   0.204   3.392   9.848
 2303SOL    HW211757   0.159   3.242   9.893
 2304SOL     OW11758   0.606   2.826   9.433
 2304SOL    HW111759   0.613   2.910   9.379
 2304SOL    HW211760   0.652   2.839   9.521
 2305SOL     OW11761   0.122   2.505   9.873
 2305SOL    HW111762   0.077   2.417   9.890
 2305SOL    HW211763   0.121   2.559   9.957
 2306SOL     OW11764   1.842   3.629   9.669
 2306SOL    HW111765   1.896   3.600   9.749
 2306SOL    HW211766   1.872   3.719   9.640
 2307SOL     OW11767   0.027   3.458   9.427
 2307SOL    HW111768   0.008   3.362   9.448
 2307SOL    HW211769  -0.006   3.516   9.502
 2308SOL     OW11770   1.689   2.784   9.922
 2308SOL    HW111771   1.784   2.755   9.930
 2308SOL    HW211772   1.681   2.849   9.847
 2309SOL     OW11773   0.613   3.227  10.036
 2309SOL    HW111774   0.564   3.140  10.045
 2309SOL    HW211775   0.590   3.270   9.949
 2310SOL     OW11776   0.809   1.866   9.812
 2310SOL    HW111777   0.849   1.957   9.803
 2310SOL    HW211778   0.709   1.874   9.818
 2311SOL     OW11779   1.525   2.861   9.500
 2311SOL    HW111780   1.462   2.785   9.513
 2311SOL    HW211781   1.573   2.879   9.586
 2312SOL     OW11782   0.598   2.591   9.580
 2312SOL    HW111783   0.622   2.660   9.512
 2312SOL    HW211784   0.520   2.624   9.634
 2313SOL     OW11785   1.576   3.524   9.617
 2313SOL    HW111786   1.665   3.570   9.620
 2313SOL    HW211787   1.555   3.500   9.522
 2314SOL     OW11788   1.041   2.563   9.739
 2314SOL    HW111789   1.067   2.559   9.835
 2314SOL    HW211790   0.956   2.512   9.725
 2315SOL     OW11791   0.076   2.673  10.099
 2315SOL    HW111792   0.175   2.661  10.108
 2315SOL    HW211793   0.052   2.768  10.120
 2316SOL     OW11794   0.865   2.210   9.505
 2316SOL    HW111795   0.924   2.273   9.456
 2316SOL    HW211796   0.884   2.116   9.476
 2317SOL     OW11797   1.008   3.318   9.787
 2317SOL    HW111798   0.962   3.390   9.735
 2317SOL    HW211799   1.004   3.338   9.885
 2318SOL     OW11800   0.351   3.663  10.163
 2318SOL    HW111801   0.401   3.577  10.169
 2318SOL    HW211802   0.416   3.740  10.160
 2319SOL     OW11803   0.321   2.805   9.552
 2319SOL    HW111804   0.403   2.844   9.510
 2319SOL    HW211805   0.294   2.723   9.503
 2320SOL     OW11806   1.111   3.638   9.547
 2320SOL    HW111807   1.051   3.576   9.597
 2320SOL    HW211808   1.142   3.594   9.462
 2321SOL     OW11809   0.464   3.605   9.633
 2321SOL    HW111810   0.497   3.644   9.719
 2321SOL    HW211811   0.540   3.598   9.568
 2322SOL     OW11812   1.400   1.969   9.736
 2322SOL    HW111813   1.376   1.932   9.646
 2322SOL    HW211814   1.499   1.985   9.740
 2323SOL     OW11815   0.382   2.562   9.790
 2323SOL    HW111816   0.427   2.472   9.787
 2323SOL    HW211817   0.288   2.551   9.823
 2324SOL     OW11818   0.614   1.984   9.427
 2324SOL    HW111819   0.712   1.962   9.434
 2324SOL    HW211820   0.583   1.967   9.334
 2325SOL     OW11821   0.539   1.926   9.822
 2325SOL    HW111822   0.458   1.927   9.880
 2325SOL    HW211823   0.542   2.009   9.767
 2326SOL     OW11824   0.297   1.897   9.481
 2326SOL    HW111825   0.346   1.981   9.460
 2326SOL    HW211826   0.359   1.832   9.526
 2327SOL     OW11827   0.935   2.098   9.790
 2327SOL    HW111828   0.887   2.139   9.712
 2327SOL    HW211829   1.034   2.096   9.771
 2328SOL     OW11830   0.459   3.014  10.051
 2328SOL    HW111831   0.388   2.987  10.116
 2328SOL    HW211832   0.433   2.986   9.958
 2329SOL     OW11833   1.271   3.659   9.901
 2329SOL    HW111834   1.315   3.723   9.837
 2329SOL    HW211835   1.221   3.711   9.971
 2330SOL     OW11836   1.032   2.411   9.326
 2330SOL    HW111837   0.991   2.493   9.287
 2330SOL    HW211838   1.096   2.437   9.399
 2331SOL     OW11839   0.866   2.316   9.952
 2331SOL    HW111840   0.834   2.388   9.890
 2331SOL    HW211841   0.890   2.235   9.899
 2332SOL     OW11842   1.857   2.695   9.687
 2332SOL    HW111843   1.899   2.631   9.751
 2332SOL    HW211844   1.819   2.644   9.609
 2333SOL     OW11845   0.488   3.247   9.484
 2333SOL    HW111846   0.401   3.232   9.531
 2333SOL    HW211847   0.471   3.273   9.389
 2334SOL     OW11848   1.390   2.437   9.388
 2334SOL    HW111849   1.336   2.416   9.469
 2334SOL    HW211850   1.481   2.396   9.397
 2335SOL     OW11851   0.527   2.118   9.638
 2335SOL    HW111852   0.554   2.059   9.563
 2335SOL    HW211853   0.527   2.213   9.607
 2336SOL     OW11854   0.367   2.962   9.811
 2336SOL    HW111855   0.360   3.045   9.755
 2336SOL    HW211856   0.371   2.882   9.751
 2337SOL     OW11857   1.252   3.210   9.698
 2337SOL    HW111858   1.302   3.287   9.738
 2337SOL    HW211859   1.157   3.212   9.730
 2338SOL     OW11860   1.582   2.501   9.782
 2338SOL    HW111861   1.551   2.562   9.855
 2338SOL    HW211862   1.632   2.553   9.713
 2339SOL     OW11863   1.209   2.387   9.585
 2339SOL    HW111864   1.222   2.303   9.639
 2339SOL    HW211865   1.180   2.461   9.645
 2340SOL     OW11866   0.307   1.925   9.928
 2340SOL    HW111867   0.296   2.019   9.961
 2340SOL    HW211868   0.302   1.862  10.005
 2341SOL     OW11869   1.622   2.229   9.684
 2341SOL    HW111870   1.624   2.153   9.748
 2341SOL    HW211871   1.574   2.306   9.724
 2342SOL     OW11872   1.540   2.136   9.435
 2342SOL    HW111873   1.479   2.061   9.458
 2342SOL    HW211874   1.562   2.188   9.518
 2343SOL     OW11875   1.303   2.700   9.352
 2343SOL    HW111876   1.337   2.607   9.367
 2343SOL    HW211877   1.321   2.727   9.257
 2344SOL     OW11878   0.815   2.434   9.635
 2344SOL    HW111879   0.822   2.345   9.589
 2344SOL    HW211880   0.721   2.468   9.627
 2345SOL     OW11881   0.473   2.362   9.501
 2345SOL    HW111882   0.534   2.442   9.505
 2345SOL    HW211883   0.378   2.393   9.508
 2346SOL     OW11884   1.302   2.717   9.619
 2346SOL    HW111885   1.216   2.686   9.661
 2346SOL    HW211886   1.298   2.703   9.520
 2347SOL     OW11887   1.726   1.997   9.833
 2347SOL    HW111888   1.799   1.980   9.766
 2347SOL    HW211889   1.695   1.910   9.871
 2348SOL     OW11890   1.388   3.435   9.787
 2348SOL    HW111891   1.455   3.447   9.713
 2348SOL    HW211892   1.348   3.524   9.810
 2349SOL     OW11893   0.672   3.478   9.464
 2349SOL    HW111894   0.681   3.488   9.365
 2349SOL    HW211895   0.632   3.389   9.485
 2350SOL     OW11896   0.590   3.349   9.801
 2350SOL    HW111897   0.632   3.291   9.731
 2350SOL    HW211898   0.546   3.428   9.757
 2351SOL     OW11899   0.255   3.210   9.600
 2351SOL    HW111900   0.159   3.211   9.573
 2351SOL    HW211901   0.267   3.263   9.684
 2352SOL     OW11902   0.075   2.207   9.343
 2352SOL    HW111903  -0.017   2.179   9.314
 2352SOL    HW211904   0.106   2.284   9.287
 2353SOL     OW11905   0.072   2.028   9.628
 2353SOL    HW111906   0.055   2.111   9.574
 2353SOL    HW211907   0.162   1.991   9.606
 2354SOL     OW11908   1.225   2.187   9.759
 2354SOL    HW111909   1.290   2.113   9.748
 2354SOL    HW211910   1.245   2.237   9.843
 2355SOL     OW11911   0.859   3.236   9.326
 2355SOL    HW111912   0.813   3.251   9.414
 2355SOL    HW211913   0.903   3.321   9.296
 2356SOL     OW11914   1.083   2.846   9.397
 2356SOL    HW111915   1.060   2.899   9.315
 2356SOL    HW211916   1.164   2.790   9.378
 2357SOL     OW11917   0.079   3.102   9.963
 2357SOL    HW111918   0.078   3.055  10.051
 2357SOL    HW211919   0.161   3.074   9.912
 2358SOL     OW11920   0.428   2.286   9.830
 2358SOL    HW111921   0.458   2.214   9.768
 2358SOL    HW211922   0.389   2.246   9.913
 2359SOL     OW11923   0.770   3.192   9.611
 2359SOL    HW111924   0.724   3.105   9.628
 2359SOL    HW211925   0.861   3.189   9.652
 2360SOL     OW11926   0.039   2.939   9.610
 2360SOL    HW111927   0.138   2.928   9.601
 2360SOL    HW211928  -0.001   2.853   9.642
 2361SOL     OW11929   0.875   3.508   9.647
 2361SOL    HW111930   0.798   3.473   9.593
 2361SOL    HW211931   0.843   3.579   9.709
 2362SOL     OW11932   0.230   4.352   0.113
 2362SOL    HW111933   0.137   4.350   0.150
 2362SOL    HW211934   0.231   4.313   0.021
 2363SOL     OW11935   0.225   3.999   0.996
 2363SOL    HW111936   0.260   3.982   1.088
 2363SOL    HW211937   0.137   3.954   0.984
 2364SOL     OW11938   0.019   4.092   0.647
 2364SOL    HW111939  -0.063   4.135   0.686
 2364SOL    HW211940  -0.009   4.019   0.584
 2365SOL     OW11941   0.569   4.999   1.165
 2365SOL    HW111942   0.476   4.992   1.128
 2365SOL    HW211943   0.580   5.088   1.209
 2366SOL     OW11944   1.555   5.235   0.703
 2366SOL    HW111945   1.498   5.219   0.784
 2366SOL    HW211946   1.496   5.245   0.623
 2367SOL     OW11947   1.135   4.427   0.717
 2367SOL    HW111948   1.192   4.505   0.692
 2367SOL    HW211949   1.075   4.453   0.793
 2368SOL     OW11950   1.755   4.331   0.231
 2368SOL    HW111951   1.743   4.318   0.132
 2368SOL    HW211952   1.725   4.250   0.280
 2369SOL     OW11953   0.768   4.868   1.023
 2369SOL    HW111954   0.690   4.885   1.083
 2369SOL    HW211955   0.802   4.955   0.987
 2370SOL     OW11956   0.850   4.522   1.823
 2370SOL    HW111957   0.846   4.598   1.888
 2370SOL    HW211958   0.872   4.558   1.732
 2371SOL     OW11959   0.685   4.736   0.665
 2371SOL    HW111960   0.754   4.720   0.735
 2371SOL    HW211961   0.612   4.793   0.703
 2372SOL     OW11962   0.686   4.885   1.803
 2372SOL    HW111963   0.746   4.964   1.817
 2372SOL    HW211964   0.600   4.916   1.762
 2373SOL     OW11965   0.335   5.159   1.061
 2373SOL    HW111966   0.257   5.128   1.008
 2373SOL    HW211967   0.393   5.217   1.004
 2374SOL     OW11968   1.460   5.229   1.339
 2374SOL    HW111969   1.484   5.323   1.365
 2374SOL    HW211970   1.444   5.175   1.421
 2375SOL     OW11971   0.438   4.116   1.499
 2375SOL    HW111972   0.520   4.060   1.508
 2375SOL    HW211973   0.357   4.058   1.503
 2376SOL     OW11974   0.231   5.437   0.483
 2376SOL    HW111975   0.265   5.514   0.537
 2376SOL    HW211976   0.275   5.437   0.393
 2377SOL     OW11977   1.127   5.065   1.690
 2377SOL    HW111978   1.174   5.065   1.778
 2377SOL    HW211979   1.079   4.978   1.679
 2378SOL     OW11980   0.230   5.158   0.538
 2378SOL    HW111981   0.204   5.254   0.538
 2378SOL    HW211982   0.159   5.104   0.583
 2379SOL     OW11983   0.240   4.815   0.886
 2379SOL    HW111984   0.254   4.731   0.938
 2379SOL    HW211985   0.185   4.879   0.941
 2380SOL     OW11986   0.620   5.510   1.439
 2380SOL    HW111987   0.528   5.493   1.474
 2380SOL    HW211988   0.648   5.602   1.465
 2381SOL     OW11989   0.606   4.688   0.123
 2381SOL    HW111990   0.613   4.772   0.069
 2381SOL    HW211991   0.652   4.701   0.211
 2382SOL     OW11992   0.122   4.367   0.563
 2382SOL    HW111993   0.077   4.279   0.580
 2382SOL    HW211994   0.121   4.421   0.647
 2383SOL     OW11995   1.842   5.491   0.359
 2383SOL    HW111996   1.896   5.462   0.439
 2383SOL    HW211997   1.872   5.581   0.330
 2384SOL     OW11998   0.027   5.320   0.117
 2384SOL    HW111999   0.008   5.224   0.138
 2384SOL    HW212000  -0.006   5.378   0.192
 2385SOL     OW12001   1.689   4.646   0.612
 2385SOL    HW112002   1.784   4.617   0.620
 2385SOL    HW212003   1.681   4.711   0.537
 2386SOL     OW12004   1.641   4.832   0.432
 2386SOL    HW112005   1.727   4.834   0.380
 2386SOL    HW212006   1.655   4.879   0.520
 2387SOL     OW12007   0.113   4.461   1.597
 2387SOL    HW112008   0.201   4.448   1.642
 2387SOL    HW212009   0.100   4.558   1.575
 2388SOL     OW12010   0.613   5.089   0.726
 2388SOL    HW112011   0.564   5.002   0.735
 2388SOL    HW212012   0.590   5.132   0.639
 2389SOL     OW12013   1.293   4.952   1.423
 2389SOL    HW112014   1.330   4.879   1.365
 2389SOL    HW212015   1.345   4.957   1.508
 2390SOL     OW12016   0.809   3.728   0.502
 2390SOL    HW112017   0.849   3.819   0.493
 2390SOL    HW212018   0.709   3.736   0.508
 2391SOL     OW12019   0.197   4.700   1.264
 2391SOL    HW112020   0.286   4.655   1.250
 2391SOL    HW212021   0.124   4.635   1.245
 2392SOL     OW12022   1.525   4.723   0.190
 2392SOL    HW112023   1.462   4.647   0.203
 2392SOL    HW212024   1.573   4.741   0.276
 2393SOL     OW12025   1.187   5.516   1.616
 2393SOL    HW112026   1.211   5.576   1.540
 2393SOL    HW212027   1.194   5.421   1.586
 2394SOL     OW12028   0.317   3.975   1.801
 2394SOL    HW112029   0.388   4.046   1.807
 2394SOL    HW212030   0.229   4.014   1.829
 2395SOL     OW12031   1.466   5.141   0.953
 2395SOL    HW112032   1.407   5.147   1.033
 2395SOL    HW212033   1.451   5.053   0.907
 2396SOL     OW12034   1.667   5.438   0.572
 2396SOL    HW112035   1.626   5.415   0.484
 2396SOL    HW212036   1.649   5.364   0.637
 2397SOL     OW12037   0.598   4.453   0.270
 2397SOL    HW112038   0.622   4.522   0.202
 2397SOL    HW212039   0.520   4.486   0.324
 2398SOL     OW12040   1.281   4.069   0.944
 2398SOL    HW112041   1.195   4.019   0.931
 2398SOL    HW212042   1.343   4.015   1.000
 2399SOL     OW12043   1.576   5.386   0.307
 2399SOL    HW112044   1.665   5.432   0.310
 2399SOL    HW212045   1.555   5.362   0.212
 2400SOL     OW12046   0.807   4.329   1.465
 2400SOL    HW112047   0.760   4.326   1.554
 2400SOL    HW212048   0.756   4.274   1.399
 2401SOL     OW12049   1.394   4.193   1.674
 2401SOL    HW112050   1.374   4.236   1.762
 2401SOL    HW212051   1.472   4.131   1.683
 2402SOL     OW12052   0.973   4.614   1.572
 2402SOL    HW112053   1.019   4.530   1.543
 2402SOL    HW212054   0.917   4.648   1.497
 2403SOL     OW12055   0.991   4.134   1.242
 2403SOL    HW112056   0.914   4.168   1.296
 2403SOL    HW212057   0.957   4.083   1.163
 2404SOL     OW12058   1.041   4.425   0.429
 2404SOL    HW112059   1.067   4.421   0.525
 2404SOL    HW212060   0.956   4.374   0.415
 2405SOL     OW12061   0.076   4.535   0.789
 2405SOL    HW112062   0.175   4.523   0.798
 2405SOL    HW212063   0.052   4.630   0.810
 2406SOL     OW12064   0.130   5.545   1.571
 2406SOL    HW112065   0.120   5.530   1.670
 2406SOL    HW212066   0.044   5.581   1.535
 2407SOL     OW12067   1.719   4.309   1.831
 2407SOL    HW112068   1.693   4.398   1.795
 2407SOL    HW212069   1.717   4.241   1.758
 2408SOL     OW12070   1.362   4.868   0.545
 2408SOL    HW112071   1.445   4.839   0.497
 2408SOL    HW212072   1.313   4.935   0.489
 2409SOL     OW12073   0.550   3.920   0.885
 2409SOL    HW112074   0.545   3.915   0.985
 2409SOL    HW212075   0.552   4.016   0.856
 2410SOL     OW12076   1.008   5.180   0.477
 2410SOL    HW112077   0.962   5.252   0.425
 2410SOL    HW212078   1.004   5.200   0.575
 2411SOL     OW12079   0.351   5.525   0.853
 2411SOL    HW112080   0.401   5.439   0.859
 2411SOL    HW212081   0.416   5.602   0.850
 2412SOL     OW12082   1.795   4.790   0.873
 2412SOL    HW112083   1.733   4.775   0.797
 2412SOL    HW212084   1.743   4.801   0.958
 2413SOL     OW12085   1.227   5.274   1.506
 2413SOL    HW112086   1.233   5.197   1.570
 2413SOL    HW212087   1.175   5.248   1.426
 2414SOL     OW12088   0.321   4.667   0.242
 2414SOL    HW112089   0.403   4.706   0.200
 2414SOL    HW212090   0.294   4.585   0.193
 2415SOL     OW12091   0.461   4.990   1.727
 2415SOL    HW112092   0.411   4.991   1.641
 2415SOL    HW212093   0.398   4.972   1.803
 2416SOL     OW12094   1.111   5.500   0.237
 2416SOL    HW112095   1.051   5.438   0.287
 2416SOL    HW212096   1.142   5.456   0.152
 2417SOL     OW12097   0.202   4.009   1.498
 2417SOL    HW112098   0.122   4.069   1.485
 2417SOL    HW212099   0.192   3.960   1.584
 2418SOL     OW12100   1.632   5.101   0.081
 2418SOL    HW112101   1.600   5.195   0.071
 2418SOL    HW212102   1.556   5.038   0.069
 2419SOL     OW12103   0.464   5.467   0.323
 2419SOL    HW112104   0.497   5.506   0.409
 2419SOL    HW212105   0.540   5.460   0.258
 2420SOL     OW12106   1.400   3.831   0.426
 2420SOL    HW112107   1.376   3.794   0.336
 2420SOL    HW212108   1.499   3.847   0.430
 2421SOL     OW12109   0.249   5.509   1.241
 2421SOL    HW112110   0.306   5.444   1.291
 2421SOL    HW212111   0.233   5.476   1.148
 2422SOL     OW12112   0.940   5.422   0.904
 2422SOL    HW112113   1.020   5.365   0.925
 2422SOL    HW212114   0.891   5.382   0.827
 2423SOL     OW12115   0.382   4.424   0.480
 2423SOL    HW112116   0.427   4.334   0.477
 2423SOL    HW212117   0.288   4.413   0.513
 2424SOL     OW12118   1.547   3.946   1.729
 2424SOL    HW112119   1.542   3.983   1.821
 2424SOL    HW212120   1.475   3.877   1.717
 2425SOL     OW12121   0.614   3.846   0.117
 2425SOL    HW112122   0.712   3.824   0.124
 2425SOL    HW212123   0.583   3.829   0.024
 2426SOL     OW12124   0.781   3.988   1.749
 2426SOL    HW112125   0.848   3.927   1.792
 2426SOL    HW212126   0.708   4.007   1.814
 2427SOL     OW12127   0.888   5.238   1.195
 2427SOL    HW112128   0.865   5.213   1.101
 2427SOL    HW212129   0.949   5.169   1.234
 2428SOL     OW12130   1.351   4.314   1.433
 2428SOL    HW112131   1.379   4.271   1.518
 2428SOL    HW212132   1.376   4.410   1.434
 2429SOL     OW12133   0.803   5.126   0.924
 2429SOL    HW112134   0.893   5.140   0.882
 2429SOL    HW212135   0.732   5.128   0.853
 2430SOL     OW12136   0.922   4.227   0.899
 2430SOL    HW112137   0.897   4.218   0.803
 2430SOL    HW212138   0.970   4.145   0.930
 2431SOL     OW12139   0.539   3.788   0.512
 2431SOL    HW112140   0.458   3.789   0.570
 2431SOL    HW212141   0.542   3.871   0.457
 2432SOL     OW12142   1.434   4.912   0.041
 2432SOL    HW112143   1.466   4.836   0.098
 2432SOL    HW212144   1.342   4.939   0.071
 2433SOL     OW12145   0.935   3.960   0.480
 2433SOL    HW112146   0.887   4.001   0.402
 2433SOL    HW212147   1.034   3.958   0.461
 2434SOL     OW12148   1.076   4.407   1.464
 2434SOL    HW112149   0.996   4.346   1.467
 2434SOL    HW212150   1.157   4.354   1.440
 2435SOL     OW12151   1.227   5.294   0.793
 2435SOL    HW112152   1.248   5.368   0.728
 2435SOL    HW212153   1.295   5.294   0.866
 2436SOL     OW12154   0.459   4.876   0.741
 2436SOL    HW112155   0.388   4.849   0.806
 2436SOL    HW212156   0.433   4.848   0.648
 2437SOL     OW12157   1.271   5.521   0.591
 2437SOL    HW112158   1.315   5.585   0.527
 2437SOL    HW212159   1.221   5.573   0.661
 2438SOL     OW12160   0.078   4.280   1.386
 2438SOL    HW112161   0.170   4.279   1.345
 2438SOL    HW212162   0.072   4.354   1.453
 2439SOL     OW12163   0.561   3.946   1.147
 2439SOL    HW112164   0.599   3.862   1.184
 2439SOL    HW212165   0.473   3.965   1.191
 2440SOL     OW12166   0.866   4.178   0.642
 2440SOL    HW112167   0.834   4.250   0.580
 2440SOL    HW212168   0.890   4.097   0.589
 2441SOL     OW12169   1.017   3.763   0.753
 2441SOL    HW112170   0.945   3.768   0.684
 2441SOL    HW212171   0.993   3.694   0.822
 2442SOL     OW12172   1.429   4.897   0.867
 2442SOL    HW112173   1.374   4.813   0.860
 2442SOL    HW212174   1.455   4.926   0.775
 2443SOL     OW12175   1.857   4.557   0.377
 2443SOL    HW112176   1.899   4.493   0.441
 2443SOL    HW212177   1.819   4.506   0.299
 2444SOL     OW12178   0.488   5.109   0.174
 2444SOL    HW112179   0.401   5.094   0.221
 2444SOL    HW212180   0.471   5.135   0.079
 2445SOL     OW12181   1.664   5.004   0.657
 2445SOL    HW112182   1.763   5.012   0.671
 2445SOL    HW212183   1.619   5.088   0.688
 2446SOL     OW12184   1.390   4.299   0.078
 2446SOL    HW112185   1.336   4.278   0.159
 2446SOL    HW212186   1.481   4.258   0.087
 2447SOL     OW12187   0.527   3.980   0.328
 2447SOL    HW112188   0.554   3.921   0.253
 2447SOL    HW212189   0.527   4.075   0.297
 2448SOL     OW12190   1.754   4.947   1.588
 2448SOL    HW112191   1.845   4.908   1.575
 2448SOL    HW212192   1.762   5.043   1.612
 2449SOL     OW12193   1.064   5.071   1.340
 2449SOL    HW112194   0.984   5.048   1.395
 2449SOL    HW212195   1.147   5.045   1.389
 2450SOL     OW12196   1.592   5.353   1.625
 2450SOL    HW112197   1.619   5.387   1.535
 2450SOL    HW212198   1.671   5.315   1.671
 2451SOL     OW12199   1.111   4.919   1.100
 2451SOL    HW112200   1.071   4.963   1.181
 2451SOL    HW212201   1.070   4.956   1.017
 2452SOL     OW12202   1.638   4.823   1.079
 2452SOL    HW112203   1.643   4.904   1.138
 2452SOL    HW212204   1.552   4.825   1.028
 2453SOL     OW12205   0.915   3.813   1.402
 2453SOL    HW112206   0.940   3.793   1.307
 2453SOL    HW212207   0.987   3.869   1.444
 2454SOL     OW12208   0.980   4.840   1.719
 2454SOL    HW112209   0.881   4.846   1.729
 2454SOL    HW212210   1.003   4.760   1.663
 2455SOL     OW12211   0.705   4.774   0.368
 2455SOL    HW112212   0.691   4.781   0.467
 2455SOL    HW212213   0.789   4.723   0.350
 2456SOL     OW12214   0.410   4.537   1.251
 2456SOL    HW112215   0.496   4.549   1.301
 2456SOL    HW212216   0.368   4.450   1.278
 2457SOL     OW12217   1.274   4.110   1.262
 2457SOL    HW112218   1.295   4.184   1.326
 2457SOL    HW212219   1.185   4.127   1.219
 2458SOL     OW12220   0.064   5.288   1.331
 2458SOL    HW112221   0.018   5.370   1.297
 2458SOL    HW212222   0.162   5.307   1.340
 2459SOL     OW12223   0.367   4.824   0.501
 2459SOL    HW112224   0.360   4.907   0.445
 2459SOL    HW212225   0.371   4.744   0.441
 2460SOL     OW12226   0.566   4.261   0.865
 2460SOL    HW112227   0.578   4.327   0.791
 2460SOL    HW212228   0.612   4.295   0.948
 2461SOL     OW12229   1.252   5.072   0.388
 2461SOL    HW112230   1.302   5.149   0.428
 2461SOL    HW212231   1.157   5.074   0.420
 2462SOL     OW12232   1.582   4.363   0.472
 2462SOL    HW112233   1.551   4.424   0.545
 2462SOL    HW212234   1.632   4.415   0.403
 2463SOL     OW12235   0.354   5.234   1.329
 2463SOL    HW112236   0.333   5.190   1.242
 2463SOL    HW212237   0.451   5.260   1.332
 2464SOL     OW12238   0.402   4.475   1.598
 2464SOL    HW112239   0.470   4.530   1.551
 2464SOL    HW212240   0.442   4.387   1.625
 2465SOL     OW12241   1.587   4.503   1.670
 2465SOL    HW112242   1.495   4.541   1.665
 2465SOL    HW212243   1.647   4.550   1.605
 2466SOL     OW12244   1.013   3.829   1.770
 2466SOL    HW112245   1.019   3.914   1.718
 2466SOL    HW212246   1.045   3.753   1.713
 2467SOL     OW12247   0.504   3.774   1.740
 2467SOL    HW112248   0.462   3.717   1.670
 2467SOL    HW212249   0.438   3.843   1.772
 2468SOL     OW12250   0.573   4.594   1.029
 2468SOL    HW112251   0.617   4.683   1.020
 2468SOL    HW212252   0.510   4.594   1.106
 2469SOL     OW12253   1.360   4.586   1.045
 2469SOL    HW112254   1.285   4.586   0.979
 2469SOL    HW212255   1.397   4.494   1.054
 2470SOL     OW12256   1.209   4.249   0.275
 2470SOL    HW112257   1.222   4.165   0.329
 2470SOL    HW212258   1.180   4.323   0.335
 2471SOL     OW12259   0.307   3.937   1.231
 2471SOL    HW112260   0.284   3.974   1.321
 2471SOL    HW212261   0.277   3.842   1.225
 2472SOL     OW12262   0.037   5.034   1.282
 2472SOL    HW112263   0.090   4.985   1.350
 2472SOL    HW212264   0.059   5.132   1.287
 2473SOL     OW12265   0.732   4.358   1.064
 2473SOL    HW112266   0.791   4.332   0.988
 2473SOL    HW212267   0.704   4.454   1.053
 2474SOL     OW12268   1.728   4.659   1.854
 2474SOL    HW112269   1.682   4.652   1.765
 2474SOL    HW212270   1.666   4.703   1.920
 2475SOL     OW12271   0.307   3.787   0.618
 2475SOL    HW112272   0.296   3.881   0.651
 2475SOL    HW212273   0.302   3.724   0.695
 2476SOL     OW12274   1.622   4.091   0.374
 2476SOL    HW112275   1.624   4.015   0.438
 2476SOL    HW212276   1.574   4.168   0.414
 2477SOL     OW12277   1.023   4.490   0.966
 2477SOL    HW112278   1.038   4.511   1.062
 2477SOL    HW212279   0.993   4.395   0.957
 2478SOL     OW12280   0.980   5.297   1.700
 2478SOL    HW112281   0.960   5.341   1.612
 2478SOL    HW212282   1.019   5.206   1.684
 2479SOL     OW12283   1.859   5.242   1.605
 2479SOL    HW112284   1.873   5.269   1.510
 2479SOL    HW212285   1.942   5.264   1.658
 2480SOL     OW12286   0.350   4.622   1.804
 2480SOL    HW112287   0.426   4.666   1.852
 2480SOL    HW212288   0.385   4.575   1.722
 2481SOL     OW12289   1.540   3.998   0.125
 2481SOL    HW112290   1.479   3.923   0.148
 2481SOL    HW212291   1.562   4.050   0.208
 2482SOL     OW12292   1.303   4.562   0.042
 2482SOL    HW112293   1.337   4.469   0.057
 2482SOL    HW212294   1.321   4.589  -0.053
 2483SOL     OW12295   1.068   5.057   0.849
 2483SOL    HW112296   1.075   4.973   0.794
 2483SOL    HW212297   1.130   5.126   0.813
 2484SOL     OW12298   0.319   4.534   0.949
 2484SOL    HW112299   0.412   4.570   0.954
 2484SOL    HW212300   0.313   4.449   1.001
 2485SOL     OW12301   0.339   4.233   1.006
 2485SOL    HW112302   0.287   4.150   0.989
 2485SOL    HW212303   0.416   4.238   0.942
 2486SOL     OW12304   1.138   4.104   1.678
 2486SOL    HW112305   1.093   4.167   1.742
 2486SOL    HW212306   1.231   4.135   1.661
 2487SOL     OW12307   1.160   3.931   1.477
 2487SOL    HW112308   1.160   3.995   1.554
 2487SOL    HW212309   1.188   3.979   1.394
 2488SOL     OW12310   0.008   5.050   0.200
 2488SOL    HW112311  -0.085   5.071   0.169
 2488SOL    HW212312   0.018   4.951   0.213
 2489SOL     OW12313   0.088   5.525   0.927
 2489SOL    HW112314   0.046   5.439   0.900
 2489SOL    HW212315   0.182   5.528   0.893
 2490SOL     OW12316   1.002   4.520   1.238
 2490SOL    HW112317   1.043   4.488   1.324
 2490SOL    HW212318   0.906   4.493   1.235
 2491SOL     OW12319   0.040   4.268   1.114
 2491SOL    HW112320   0.125   4.235   1.073
 2491SOL    HW212321   0.053   4.283   1.212
 2492SOL     OW12322   0.189   4.244   1.722
 2492SOL    HW112323   0.248   4.204   1.652
 2492SOL    HW212324   0.131   4.315   1.681
 2493SOL     OW12325   1.369   4.674   1.660
 2493SOL    HW112326   1.408   4.763   1.680
 2493SOL    HW212327   1.379   4.654   1.563
 2494SOL     OW12328   0.815   4.296   0.325
 2494SOL    HW112329   0.822   4.207   0.279
 2494SOL    HW212330   0.721   4.330   0.317
 2495SOL     OW12331   1.657   4.328   1.206
 2495SOL    HW112332   1.619   4.259   1.268
 2495SOL    HW212333   1.739   4.292   1.162
 2496SOL     OW12334   0.252   5.288   1.744
 2496SOL    HW112335   0.222   5.345   1.820
 2496SOL    HW212336   0.245   5.191   1.770
 2497SOL     OW12337   0.671   4.188   1.269
 2497SOL    HW112338   0.637   4.099   1.239
 2497SOL    HW212339   0.697   4.242   1.189
 2498SOL     OW12340   0.930   5.402   1.465
 2498SOL    HW112341   0.906   5.384   1.370
 2498SOL    HW212342   0.960   5.496   1.475
 2499SOL     OW12343   0.473   4.224   0.191
 2499SOL    HW112344   0.534   4.304   0.195
 2499SOL    HW212345   0.378   4.255   0.198
 2500SOL     OW12346   0.159   4.861   1.466
 2500SOL    HW112347   0.181   4.800   1.542
 2500SOL    HW212348   0.169   4.812   1.380
 2501SOL     OW12349   1.347   4.783   1.234
 2501SOL    HW112350   1.371   4.720   1.160
 2501SOL    HW212351   1.257   4.823   1.216
 2502SOL     OW12352   1.302   4.579   0.309
 2502SOL    HW112353   1.216   4.548   0.351
 2502SOL    HW212354   1.298   4.565   0.210
 2503SOL     OW12355   1.759   5.471   1.154
 2503SOL    HW112356   1.820   5.501   1.081
 2503SOL    HW212357   1.721   5.382   1.132
 2504SOL     OW12358   1.252   5.455   1.128
 2504SOL    HW112359   1.336   5.460   1.074
 2504SOL    HW212360   1.229   5.359   1.146
 2505SOL     OW12361   0.083   4.982   1.022
 2505SOL    HW112362   0.078   4.981   1.122
 2505SOL    HW212363   0.000   4.941   0.984
 2506SOL     OW12364   0.688   5.386   1.716
 2506SOL    HW112365   0.632   5.467   1.725
 2506SOL    HW212366   0.740   5.390   1.630
 2507SOL     OW12367   0.903   3.810   0.133
 2507SOL    HW112368   0.954   3.811   0.047
 2507SOL    HW212369   0.959   3.768   0.204
 2508SOL     OW12370   1.388   5.297   0.477
 2508SOL    HW112371   1.455   5.309   0.403
 2508SOL    HW212372   1.348   5.386   0.500
 2509SOL     OW12373   1.280   4.651   0.672
 2509SOL    HW112374   1.340   4.570   0.674
 2509SOL    HW212375   1.320   4.720   0.612
 2510SOL     OW12376   0.830   4.997   1.422
 2510SOL    HW112377   0.825   5.030   1.517
 2510SOL    HW212378   0.744   5.016   1.376
 2511SOL     OW12379   0.672   5.340   0.154
 2511SOL    HW112380   0.681   5.350   0.055
 2511SOL    HW212381   0.632   5.251   0.175
 2512SOL     OW12382   1.650   5.444   1.394
 2512SOL    HW112383   1.703   5.454   1.310
 2512SOL    HW212384   1.623   5.534   1.428
 2513SOL     OW12385   0.263   4.050   0.720
 2513SOL    HW112386   0.184   4.101   0.686
 2513SOL    HW212387   0.254   4.035   0.818
 2514SOL     OW12388   1.194   5.336   0.031
 2514SOL    HW112389   1.200   5.243   0.068
 2514SOL    HW212390   1.135   5.336  -0.049
 2515SOL     OW12391   0.822   4.726   1.372
 2515SOL    HW112392   0.862   4.725   1.280
 2515SOL    HW212393   0.832   4.818   1.412
 2516SOL     OW12394   0.916   4.634   0.291
 2516SOL    HW112395   0.979   4.672   0.223
 2516SOL    HW212396   0.956   4.551   0.330
 2517SOL     OW12397   0.372   5.012   1.490
 2517SOL    HW112398   0.359   5.105   1.456
 2517SOL    HW212399   0.288   4.960   1.477
 2518SOL     OW12400   1.614   5.016   1.289
 2518SOL    HW112401   1.674   5.019   1.369
 2518SOL    HW212402   1.539   5.080   1.302
 2519SOL     OW12403   1.039   4.822   0.696
 2519SOL    HW112404   0.969   4.775   0.750
 2519SOL    HW212405   1.098   4.754   0.653
 2520SOL     OW12406   1.014   3.960   0.971
 2520SOL    HW112407   1.006   3.924   0.878
 2520SOL    HW212408   1.012   3.884   1.036
 2521SOL     OW12409   0.590   5.211   0.491
 2521SOL    HW112410   0.632   5.153   0.421
 2521SOL    HW212411   0.546   5.290   0.447
 2522SOL     OW12412   1.709   4.109   1.381
 2522SOL    HW112413   1.782   4.178   1.385
 2522SOL    HW212414   1.737   4.034   1.322
 2523SOL     OW12415   0.255   5.072   0.290
 2523SOL    HW112416   0.159   5.073   0.263
 2523SOL    HW212417   0.267   5.125   0.374
 2524SOL     OW12418   0.672   3.927   1.489
 2524SOL    HW112419   0.762   3.911   1.449
 2524SOL    HW212420   0.680   3.932   1.588
 2525SOL     OW12421   0.075   4.069   0.033
 2525SOL    HW112422  -0.017   4.041   0.004
 2525SOL    HW212423   0.106   4.146  -0.023
 2526SOL     OW12424   1.440   4.580   1.398
 2526SOL    HW112425   1.383   4.632   1.335
 2526SOL    HW212426   1.536   4.592   1.374
 2527SOL     OW12427   0.072   3.890   0.318
 2527SOL    HW112428   0.055   3.973   0.264
 2527SOL    HW212429   0.162   3.853   0.296
 2528SOL     OW12430   1.183   5.059   0.119
 2528SOL    HW112431   1.084   5.048   0.121
 2528SOL    HW212432   1.217   5.074   0.212
 2529SOL     OW12433   0.613   4.566   1.431
 2529SOL    HW112434   0.669   4.647   1.414
 2529SOL    HW212435   0.672   4.486   1.434
 2530SOL     OW12436   1.493   5.491   0.959
 2530SOL    HW112437   1.526   5.555   0.890
 2530SOL    HW212438   1.559   5.485   1.034
 2531SOL     OW12439   0.716   4.289   1.708
 2531SOL    HW112440   0.735   4.354   1.782
 2531SOL    HW212441   0.776   4.209   1.717
 2532SOL     OW12442   1.450   4.944   1.633
 2532SOL    HW112443   1.441   4.934   1.732
 2532SOL    HW212444   1.546   4.937   1.607
 2533SOL     OW12445   0.390   5.465   1.560
 2533SOL    HW112446   0.299   5.506   1.558
 2533SOL    HW212447   0.383   5.371   1.592
 2534SOL     OW12448   1.674   4.607   1.254
 2534SOL    HW112449   1.647   4.518   1.217
 2534SOL    HW212450   1.675   4.675   1.181
 2535SOL     OW12451   1.225   4.049   0.449
 2535SOL    HW112452   1.290   3.975   0.438
 2535SOL    HW212453   1.245   4.099   0.533
 2536SOL     OW12454   0.594   4.469   0.652
 2536SOL    HW112455   0.644   4.554   0.633
 2536SOL    HW212456   0.506   4.471   0.604
 2537SOL     OW12457   1.777   4.066   1.642
 2537SOL    HW112458   1.760   4.097   1.548
 2537SOL    HW212459   1.693   4.029   1.680
 2538SOL     OW12460   1.730   4.658   1.517
 2538SOL    HW112461   1.768   4.749   1.532
 2538SOL    HW212462   1.722   4.641   1.418
 2539SOL     OW12463   0.859   5.098   0.016
 2539SOL    HW112464   0.813   5.113   0.104
 2539SOL    HW212465   0.903   5.183  -0.014
 2540SOL     OW12466   0.661   5.514   0.953
 2540SOL    HW112467   0.615   5.602   0.940
 2540SOL    HW212468   0.760   5.526   0.946
 2541SOL     OW12469   0.859   4.680   0.861
 2541SOL    HW112470   0.913   4.611   0.909
 2541SOL    HW212471   0.827   4.749   0.927
 2542SOL     OW12472   1.083   4.708   0.087
 2542SOL    HW112473   1.060   4.761   0.005
 2542SOL    HW212474   1.164   4.652   0.068
 2543SOL     OW12475   1.861   5.293   0.851
 2543SOL    HW112476   1.790   5.281   0.781
 2543SOL    HW212477   1.862   5.214   0.911
 2544SOL     OW12478   0.221   5.038   1.844
 2544SOL    HW112479   0.156   4.965   1.823
 2544SOL    HW212480   0.225   5.052   1.942
 2545SOL     OW12481   0.079   4.964   0.653
 2545SOL    HW112482   0.078   4.917   0.741
 2545SOL    HW212483   0.161   4.936   0.602
 2546SOL     OW12484   0.672   5.115   1.624
 2546SOL    HW112485   0.594   5.065   1.662
 2546SOL    HW212486   0.669   5.210   1.655
 2547SOL     OW12487   0.428   4.148   0.520
 2547SOL    HW112488   0.458   4.076   0.458
 2547SOL    HW212489   0.389   4.108   0.603
 2548SOL     OW12490   1.705   5.211   1.104
 2548SOL    HW112491   1.612   5.186   1.077
 2548SOL    HW212492   1.731   5.161   1.186
 2549SOL     OW12493   0.317   4.271   1.280
 2549SOL    HW112494   0.355   4.212   1.352
 2549SOL    HW212495   0.357   4.245   1.192
 2550SOL     OW12496   0.812   5.310   0.687
 2550SOL    HW112497   0.844   5.320   0.593
 2550SOL    HW212498   0.733   5.248   0.689
 2551SOL     OW12499   1.424   3.938   1.112
 2551SOL    HW112500   1.476   3.873   1.167
 2551SOL    HW212501   1.375   4.001   1.173
 2552SOL     OW12502   1.001   3.758   1.154
 2552SOL    HW112503   0.938   3.686   1.123
 2552SOL    HW212504   1.094   3.722   1.154
 2553SOL     OW12505   0.770   5.054   0.301
 2553SOL    HW112506   0.724   4.967   0.318
 2553SOL    HW212507   0.861   5.051   0.342
 2554SOL     OW12508   0.618   5.291   1.284
 2554SOL    HW112509   0.613   5.373   1.341
 2554SOL    HW212510   0.707   5.288   1.239
 2555SOL     OW12511   1.352   3.776   0.168
 2555SOL    HW112512   1.387   3.735   0.084
 2555SOL    HW212513   1.262   3.738   0.188
 2556SOL     OW12514   1.300   4.177   0.691
 2556SOL    HW112515   1.241   4.257   0.695
 2556SOL    HW212516   1.315   4.142   0.784
 2557SOL     OW12517   0.039   4.801   0.300
 2557SOL    HW112518   0.138   4.790   0.291
 2557SOL    HW212519  -0.001   4.715   0.332
 2558SOL     OW12520   0.875   5.370   0.337
 2558SOL    HW112521   0.798   5.335   0.283
 2558SOL    HW212522   0.843   5.441   0.399
 2559SOL     OW12523   0.230   4.352   1.975
 2559SOL    HW112524   0.137   4.350   2.012
 2559SOL    HW212525   0.231   4.313   1.883
 2560SOL     OW12526   0.225   3.999   2.858
 2560SOL    HW112527   0.260   3.982   2.950
 2560SOL    HW212528   0.137   3.954   2.846
 2561SOL     OW12529   0.019   4.092   2.509
 2561SOL    HW112530  -0.063   4.135   2.548
 2561SOL    HW212531  -0.009   4.019   2.446
 2562SOL     OW12532   0.569   4.999   3.027
 2562SOL    HW112533   0.476   4.992   2.990
 2562SOL    HW212534   0.580   5.088   3.071
 2563SOL     OW12535   1.555   5.235   2.565
 2563SOL    HW112536   1.498   5.219   2.646
 2563SOL    HW212537   1.496   5.245   2.485
 2564SOL     OW12538   1.755   4.331   2.093
 2564SOL    HW112539   1.743   4.318   1.994
 2564SOL    HW212540   1.725   4.250   2.142
 2565SOL     OW12541   0.768   4.868   2.885
 2565SOL    HW112542   0.690   4.885   2.945
 2565SOL    HW212543   0.802   4.955   2.849
 2566SOL     OW12544   0.850   4.522   3.685
 2566SOL    HW112545   0.846   4.598   3.750
 2566SOL    HW212546   0.872   4.558   3.594
 2567SOL     OW12547   0.686   4.885   3.665
 2567SOL    HW112548   0.746   4.964   3.679
 2567SOL    HW212549   0.600   4.916   3.624
 2568SOL     OW12550   0.335   5.159   2.923
 2568SOL    HW112551   0.257   5.128   2.870
 2568SOL    HW212552   0.393   5.217   2.866
 2569SOL     OW12553   1.460   5.229   3.201
 2569SOL    HW112554   1.484   5.323   3.227
 2569SOL    HW212555   1.444   5.175   3.283
 2570SOL     OW12556   0.438   4.116   3.361
 2570SOL    HW112557   0.520   4.060   3.370
 2570SOL    HW212558   0.357   4.058   3.365
 2571SOL     OW12559   1.603   4.171   2.599
 2571SOL    HW112560   1.529   4.217   2.549
 2571SOL    HW212561   1.654   4.239   2.652
 2572SOL     OW12562   0.231   5.437   2.345
 2572SOL    HW112563   0.265   5.514   2.399
 2572SOL    HW212564   0.275   5.437   2.255
 2573SOL     OW12565   1.127   5.065   3.552
 2573SOL    HW112566   1.174   5.065   3.640
 2573SOL    HW212567   1.079   4.978   3.541
 2574SOL     OW12568   0.230   5.158   2.400
 2574SOL    HW112569   0.204   5.254   2.400
 2574SOL    HW212570   0.159   5.104   2.445
 2575SOL     OW12571   0.240   4.815   2.748
 2575SOL    HW112572   0.254   4.731   2.800
 2575SOL    HW212573   0.185   4.879   2.803
 2576SOL     OW12574   0.620   5.510   3.301
 2576SOL    HW112575   0.528   5.493   3.336
 2576SOL    HW212576   0.648   5.602   3.327
 2577SOL     OW12577   0.606   4.688   1.985
 2577SOL    HW112578   0.613   4.772   1.931
 2577SOL    HW212579   0.652   4.701   2.073
 2578SOL     OW12580   0.122   4.367   2.425
 2578SOL    HW112581   0.077   4.279   2.442
 2578SOL    HW212582   0.121   4.421   2.509
 2579SOL     OW12583   1.842   5.491   2.221
 2579SOL    HW112584   1.896   5.462   2.301
 2579SOL    HW212585   1.872   5.581   2.192
 2580SOL     OW12586   0.027   5.320   1.979
 2580SOL    HW112587   0.008   5.224   2.000
 2580SOL    HW212588  -0.006   5.378   2.054
 2581SOL     OW12589   1.689   4.646   2.474
 2581SOL    HW112590   1.784   4.617   2.482
 2581SOL    HW212591   1.681   4.711   2.399
 2582SOL     OW12592   1.641   4.832   2.294
 2582SOL    HW112593   1.727   4.834   2.242
 2582SOL    HW212594   1.655   4.879   2.382
 2583SOL     OW12595   0.113   4.461   3.459
 2583SOL    HW112596   0.201   4.448   3.504
 2583SOL    HW212597   0.100   4.558   3.437
 2584SOL     OW12598   1.293   4.952   3.285
 2584SOL    HW112599   1.330   4.879   3.227
 2584SOL    HW212600   1.345   4.957   3.370
 2585SOL     OW12601   0.197   4.700   3.126
 2585SOL    HW112602   0.286   4.655   3.112
 2585SOL    HW212603   0.124   4.635   3.107
 2586SOL     OW12604   1.525   4.723   2.052
 2586SOL    HW112605   1.462   4.647   2.065
 2586SOL    HW212606   1.573   4.741   2.138
 2587SOL     OW12607   1.187   5.516   3.478
 2587SOL    HW112608   1.211   5.576   3.402
 2587SOL    HW212609   1.194   5.421   3.448
 2588SOL     OW12610   0.317   3.975   3.663
 2588SOL    HW112611   0.388   4.046   3.669
 2588SOL    HW212612   0.229   4.014   3.691
 2589SOL     OW12613   1.466   5.141   2.815
 2589SOL    HW112614   1.407   5.147   2.895
 2589SOL    HW212615   1.451   5.053   2.769
 2590SOL     OW12616   1.667   5.438   2.434
 2590SOL    HW112617   1.626   5.415   2.346
 2590SOL    HW212618   1.649   5.364   2.499
 2591SOL     OW12619   0.598   4.453   2.132
 2591SOL    HW112620   0.622   4.522   2.064
 2591SOL    HW212621   0.520   4.486   2.186
 2592SOL     OW12622   1.281   4.069   2.806
 2592SOL    HW112623   1.195   4.019   2.793
 2592SOL    HW212624   1.343   4.015   2.862
 2593SOL     OW12625   1.576   5.386   2.169
 2593SOL    HW112626   1.665   5.432   2.172
 2593SOL    HW212627   1.555   5.362   2.074
 2594SOL     OW12628   0.807   4.329   3.327
 2594SOL    HW112629   0.760   4.326   3.416
 2594SOL    HW212630   0.756   4.274   3.261
 2595SOL     OW12631   1.394   4.193   3.536
 2595SOL    HW112632   1.374   4.236   3.624
 2595SOL    HW212633   1.472   4.131   3.545
 2596SOL     OW12634   0.973   4.614   3.434
 2596SOL    HW112635   1.019   4.530   3.405
 2596SOL    HW212636   0.917   4.648   3.359
 2597SOL     OW12637   0.991   4.134   3.104
 2597SOL    HW112638   0.914   4.168   3.158
 2597SOL    HW212639   0.957   4.083   3.025
 2598SOL     OW12640   1.041   4.425   2.291
 2598SOL    HW112641   1.067   4.421   2.387
 2598SOL    HW212642   0.956   4.374   2.277
 2599SOL     OW12643   0.076   4.535   2.651
 2599SOL    HW112644   0.175   4.523   2.660
 2599SOL    HW212645   0.052   4.630   2.672
 2600SOL     OW12646   0.130   5.545   3.433
 2600SOL    HW112647   0.120   5.530   3.532
 2600SOL    HW212648   0.044   5.581   3.397
 2601SOL     OW12649   0.865   4.072   2.057
 2601SOL    HW112650   0.924   4.135   2.008
 2601SOL    HW212651   0.884   3.978   2.028
 2602SOL     OW12652   1.719   4.309   3.693
 2602SOL    HW112653   1.693   4.398   3.657
 2602SOL    HW212654   1.717   4.241   3.620
 2603SOL     OW12655   1.008   5.180   2.339
 2603SOL    HW112656   0.962   5.252   2.287
 2603SOL    HW212657   1.004   5.200   2.437
 2604SOL     OW12658   0.351   5.525   2.715
 2604SOL    HW112659   0.401   5.439   2.721
 2604SOL    HW212660   0.416   5.602   2.712
 2605SOL     OW12661   1.795   4.790   2.735
 2605SOL    HW112662   1.733   4.775   2.659
 2605SOL    HW212663   1.743   4.801   2.820
 2606SOL     OW12664   1.227   5.274   3.368
 2606SOL    HW112665   1.233   5.197   3.432
 2606SOL    HW212666   1.175   5.248   3.288
 2607SOL     OW12667   0.321   4.667   2.104
 2607SOL    HW112668   0.403   4.706   2.062
 2607SOL    HW212669   0.294   4.585   2.055
 2608SOL     OW12670   1.458   4.459   2.590
 2608SOL    HW112671   1.453   4.394   2.665
 2608SOL    HW212672   1.538   4.518   2.603
 2609SOL     OW12673   1.111   5.500   2.099
 2609SOL    HW112674   1.051   5.438   2.149
 2609SOL    HW212675   1.142   5.456   2.014
 2610SOL     OW12676   0.202   4.009   3.360
 2610SOL    HW112677   0.122   4.069   3.347
 2610SOL    HW212678   0.192   3.960   3.446
 2611SOL     OW12679   1.632   5.101   1.943
 2611SOL    HW112680   1.600   5.195   1.933
 2611SOL    HW212681   1.556   5.038   1.931
 2612SOL     OW12682   0.464   5.467   2.185
 2612SOL    HW112683   0.497   5.506   2.271
 2612SOL    HW212684   0.540   5.460   2.120
 2613SOL     OW12685   1.400   3.831   2.288
 2613SOL    HW112686   1.376   3.794   2.198
 2613SOL    HW212687   1.499   3.847   2.292
 2614SOL     OW12688   0.249   5.509   3.103
 2614SOL    HW112689   0.306   5.444   3.153
 2614SOL    HW212690   0.233   5.476   3.010
 2615SOL     OW12691   0.940   5.422   2.766
 2615SOL    HW112692   1.020   5.365   2.787
 2615SOL    HW212693   0.891   5.382   2.689
 2616SOL     OW12694   0.382   4.424   2.342
 2616SOL    HW112695   0.427   4.334   2.339
 2616SOL    HW212696   0.288   4.413   2.375
 2617SOL     OW12697   1.547   3.946   3.591
 2617SOL    HW112698   1.542   3.983   3.683
 2617SOL    HW212699   1.475   3.877   3.579
 2618SOL     OW12700   0.614   3.846   1.979
 2618SOL    HW112701   0.712   3.824   1.986
 2618SOL    HW212702   0.583   3.829   1.886
 2619SOL     OW12703   0.781   3.988   3.611
 2619SOL    HW112704   0.848   3.927   3.654
 2619SOL    HW212705   0.708   4.007   3.676
 2620SOL     OW12706   0.888   5.238   3.057
 2620SOL    HW112707   0.865   5.213   2.963
 2620SOL    HW212708   0.949   5.169   3.096
 2621SOL     OW12709   0.922   4.227   2.761
 2621SOL    HW112710   0.897   4.218   2.665
 2621SOL    HW212711   0.970   4.145   2.792
 2622SOL     OW12712   0.539   3.788   2.374
 2622SOL    HW112713   0.458   3.789   2.432
 2622SOL    HW212714   0.542   3.871   2.319
 2623SOL     OW12715   1.434   4.912   1.903
 2623SOL    HW112716   1.466   4.836   1.960
 2623SOL    HW212717   1.342   4.939   1.933
 2624SOL     OW12718   0.297   3.759   2.033
 2624SOL    HW112719   0.346   3.843   2.012
 2624SOL    HW212720   0.359   3.694   2.078
 2625SOL     OW12721   0.935   3.960   2.342
 2625SOL    HW112722   0.887   4.001   2.264
 2625SOL    HW212723   1.034   3.958   2.323
 2626SOL     OW12724   1.076   4.407   3.326
 2626SOL    HW112725   0.996   4.346   3.329
 2626SOL    HW212726   1.157   4.354   3.302
 2627SOL     OW12727   1.227   5.294   2.655
 2627SOL    HW112728   1.248   5.368   2.590
 2627SOL    HW212729   1.295   5.294   2.728
 2628SOL     OW12730   1.271   5.521   2.453
 2628SOL    HW112731   1.315   5.585   2.389
 2628SOL    HW212732   1.221   5.573   2.523
 2629SOL     OW12733   1.032   4.273   1.878
 2629SOL    HW112734   0.991   4.355   1.839
 2629SOL    HW212735   1.096   4.299   1.951
 2630SOL     OW12736   0.078   4.280   3.248
 2630SOL    HW112737   0.170   4.279   3.207
 2630SOL    HW212738   0.072   4.354   3.315
 2631SOL     OW12739   0.866   4.178   2.504
 2631SOL    HW112740   0.834   4.250   2.442
 2631SOL    HW212741   0.890   4.097   2.451
 2632SOL     OW12742   1.017   3.763   2.615
 2632SOL    HW112743   0.945   3.768   2.546
 2632SOL    HW212744   0.993   3.694   2.684
 2633SOL     OW12745   1.857   4.557   2.239
 2633SOL    HW112746   1.899   4.493   2.303
 2633SOL    HW212747   1.819   4.506   2.161
 2634SOL     OW12748   0.488   5.109   2.036
 2634SOL    HW112749   0.401   5.094   2.083
 2634SOL    HW212750   0.471   5.135   1.941
 2635SOL     OW12751   1.664   5.004   2.519
 2635SOL    HW112752   1.763   5.012   2.533
 2635SOL    HW212753   1.619   5.088   2.550
 2636SOL     OW12754   1.390   4.299   1.940
 2636SOL    HW112755   1.336   4.278   2.021
 2636SOL    HW212756   1.481   4.258   1.949
 2637SOL     OW12757   0.527   3.980   2.190
 2637SOL    HW112758   0.554   3.921   2.115
 2637SOL    HW212759   0.527   4.075   2.159
 2638SOL     OW12760   1.754   4.947   3.450
 2638SOL    HW112761   1.845   4.908   3.437
 2638SOL    HW212762   1.762   5.043   3.474
 2639SOL     OW12763   1.064   5.071   3.202
 2639SOL    HW112764   0.984   5.048   3.257
 2639SOL    HW212765   1.147   5.045   3.251
 2640SOL     OW12766   1.592   5.353   3.487
 2640SOL    HW112767   1.619   5.387   3.397
 2640SOL    HW212768   1.671   5.315   3.533
 2641SOL     OW12769   1.111   4.919   2.962
 2641SOL    HW112770   1.071   4.963   3.043
 2641SOL    HW212771   1.070   4.956   2.879
 2642SOL     OW12772   1.638   4.823   2.941
 2642SOL    HW112773   1.643   4.904   3.000
 2642SOL    HW212774   1.552   4.825   2.890
 2643SOL     OW12775   0.915   3.813   3.264
 2643SOL    HW112776   0.940   3.793   3.169
 2643SOL    HW212777   0.987   3.869   3.306
 2644SOL     OW12778   0.980   4.840   3.581
 2644SOL    HW112779   0.881   4.846   3.591
 2644SOL    HW212780   1.003   4.760   3.525
 2645SOL     OW12781   0.705   4.774   2.230
 2645SOL    HW112782   0.691   4.781   2.329
 2645SOL    HW212783   0.789   4.723   2.212
 2646SOL     OW12784   0.410   4.537   3.113
 2646SOL    HW112785   0.496   4.549   3.163
 2646SOL    HW212786   0.368   4.450   3.140
 2647SOL     OW12787   1.274   4.110   3.124
 2647SOL    HW112788   1.295   4.184   3.188
 2647SOL    HW212789   1.185   4.127   3.081
 2648SOL     OW12790   0.064   5.288   3.193
 2648SOL    HW112791   0.018   5.370   3.159
 2648SOL    HW212792   0.162   5.307   3.202
 2649SOL     OW12793   0.367   4.824   2.363
 2649SOL    HW112794   0.360   4.907   2.307
 2649SOL    HW212795   0.371   4.744   2.303
 2650SOL     OW12796   1.272   5.169   3.004
 2650SOL    HW112797   1.319   5.182   3.091
 2650SOL    HW212798   1.206   5.095   3.013
 2651SOL     OW12799   1.582   4.363   2.334
 2651SOL    HW112800   1.551   4.424   2.407
 2651SOL    HW212801   1.632   4.415   2.265
 2652SOL     OW12802   0.354   5.234   3.191
 2652SOL    HW112803   0.333   5.190   3.104
 2652SOL    HW212804   0.451   5.260   3.194
 2653SOL     OW12805   0.402   4.475   3.460
 2653SOL    HW112806   0.470   4.530   3.413
 2653SOL    HW212807   0.442   4.387   3.487
 2654SOL     OW12808   1.013   3.829   3.632
 2654SOL    HW112809   1.019   3.914   3.580
 2654SOL    HW212810   1.045   3.753   3.575
 2655SOL     OW12811   0.504   3.774   3.602
 2655SOL    HW112812   0.462   3.717   3.532
 2655SOL    HW212813   0.438   3.843   3.634
 2656SOL     OW12814   1.360   4.586   2.907
 2656SOL    HW112815   1.285   4.586   2.841
 2656SOL    HW212816   1.397   4.494   2.916
 2657SOL     OW12817   1.209   4.249   2.137
 2657SOL    HW112818   1.222   4.165   2.191
 2657SOL    HW212819   1.180   4.323   2.197
 2658SOL     OW12820   0.307   3.937   3.093
 2658SOL    HW112821   0.284   3.974   3.183
 2658SOL    HW212822   0.277   3.842   3.087
 2659SOL     OW12823   0.037   5.034   3.144
 2659SOL    HW112824   0.090   4.985   3.212
 2659SOL    HW212825   0.059   5.132   3.149
 2660SOL     OW12826   1.728   4.659   3.716
 2660SOL    HW112827   1.682   4.652   3.627
 2660SOL    HW212828   1.666   4.703   3.782
 2661SOL     OW12829   0.307   3.787   2.480
 2661SOL    HW112830   0.296   3.881   2.513
 2661SOL    HW212831   0.302   3.724   2.557
 2662SOL     OW12832   1.622   4.091   2.236
 2662SOL    HW112833   1.624   4.015   2.300
 2662SOL    HW212834   1.574   4.168   2.276
 2663SOL     OW12835   0.980   5.297   3.562
 2663SOL    HW112836   0.960   5.341   3.474
 2663SOL    HW212837   1.019   5.206   3.546
 2664SOL     OW12838   1.859   5.242   3.467
 2664SOL    HW112839   1.873   5.269   3.372
 2664SOL    HW212840   1.942   5.264   3.520
 2665SOL     OW12841   0.350   4.622   3.666
 2665SOL    HW112842   0.426   4.666   3.714
 2665SOL    HW212843   0.385   4.575   3.584
 2666SOL     OW12844   1.540   3.998   1.987
 2666SOL    HW112845   1.479   3.923   2.010
 2666SOL    HW212846   1.562   4.050   2.070
 2667SOL     OW12847   1.303   4.562   1.904
 2667SOL    HW112848   1.337   4.469   1.919
 2667SOL    HW212849   1.321   4.589   1.809
 2668SOL     OW12850   0.319   4.534   2.811
 2668SOL    HW112851   0.412   4.570   2.816
 2668SOL    HW212852   0.313   4.449   2.863
 2669SOL     OW12853   0.339   4.233   2.868
 2669SOL    HW112854   0.287   4.150   2.851
 2669SOL    HW212855   0.416   4.238   2.804
 2670SOL     OW12856   1.138   4.104   3.540
 2670SOL    HW112857   1.093   4.167   3.604
 2670SOL    HW212858   1.231   4.135   3.523
 2671SOL     OW12859   1.160   3.931   3.339
 2671SOL    HW112860   1.160   3.995   3.416
 2671SOL    HW212861   1.188   3.979   3.256
 2672SOL     OW12862   0.008   5.050   2.062
 2672SOL    HW112863  -0.085   5.071   2.031
 2672SOL    HW212864   0.018   4.951   2.075
 2673SOL     OW12865   0.088   5.525   2.789
 2673SOL    HW112866   0.046   5.439   2.762
 2673SOL    HW212867   0.182   5.528   2.755
 2674SOL     OW12868   0.504   5.292   2.772
 2674SOL    HW112869   0.570   5.366   2.781
 2674SOL    HW212870   0.548   5.213   2.730
 2675SOL     OW12871   0.040   4.268   2.976
 2675SOL    HW112872   0.125   4.235   2.935
 2675SOL    HW212873   0.053   4.283   3.074
 2676SOL     OW12874   0.189   4.244   3.584
 2676SOL    HW112875   0.248   4.204   3.514
 2676SOL    HW212876   0.131   4.315   3.543
 2677SOL     OW12877   0.815   4.296   2.187
 2677SOL    HW112878   0.822   4.207   2.141
 2677SOL    HW212879   0.721   4.330   2.179
 2678SOL     OW12880   0.930   5.402   3.327
 2678SOL    HW112881   0.906   5.384   3.232
 2678SOL    HW212882   0.960   5.496   3.337
 2679SOL     OW12883   0.473   4.224   2.053
 2679SOL    HW112884   0.534   4.304   2.057
 2679SOL    HW212885   0.378   4.255   2.060
 2680SOL     OW12886   0.159   4.861   3.328
 2680SOL    HW112887   0.181   4.800   3.404
 2680SOL    HW212888   0.169   4.812   3.242
 2681SOL     OW12889   1.347   4.783   3.096
 2681SOL    HW112890   1.371   4.720   3.022
 2681SOL    HW212891   1.257   4.823   3.078
 2682SOL     OW12892   1.302   4.579   2.171
 2682SOL    HW112893   1.216   4.548   2.213
 2682SOL    HW212894   1.298   4.565   2.072
 2683SOL     OW12895   1.759   5.471   3.016
 2683SOL    HW112896   1.820   5.501   2.943
 2683SOL    HW212897   1.721   5.382   2.994
 2684SOL     OW12898   1.252   5.455   2.990
 2684SOL    HW112899   1.336   5.460   2.936
 2684SOL    HW212900   1.229   5.359   3.008
 2685SOL     OW12901   0.083   4.982   2.884
 2685SOL    HW112902   0.078   4.981   2.984
 2685SOL    HW212903   0.000   4.941   2.846
 2686SOL     OW12904   0.688   5.386   3.578
 2686SOL    HW112905   0.632   5.467   3.587
 2686SOL    HW212906   0.740   5.390   3.492
 2687SOL     OW12907   1.726   3.859   2.385
 2687SOL    HW112908   1.799   3.842   2.318
 2687SOL    HW212909   1.695   3.772   2.423
 2688SOL     OW12910   1.388   5.297   2.339
 2688SOL    HW112911   1.455   5.309   2.265
 2688SOL    HW212912   1.348   5.386   2.362
 2689SOL     OW12913   0.830   4.997   3.284
 2689SOL    HW112914   0.825   5.030   3.379
 2689SOL    HW212915   0.744   5.016   3.238
 2690SOL     OW12916   0.672   5.340   2.016
 2690SOL    HW112917   0.681   5.350   1.917
 2690SOL    HW212918   0.632   5.251   2.037
 2691SOL     OW12919   1.650   5.444   3.256
 2691SOL    HW112920   1.703   5.454   3.172
 2691SOL    HW212921   1.623   5.534   3.290
 2692SOL     OW12922   1.841   3.899   2.825
 2692SOL    HW112923   1.880   3.814   2.789
 2692SOL    HW212924   1.743   3.901   2.806
 2693SOL     OW12925   0.263   4.050   2.582
 2693SOL    HW112926   0.184   4.101   2.548
 2693SOL    HW212927   0.254   4.035   2.680
 2694SOL     OW12928   1.194   5.336   1.893
 2694SOL    HW112929   1.200   5.243   1.930
 2694SOL    HW212930   1.135   5.336   1.813
 2695SOL     OW12931   0.822   4.726   3.234
 2695SOL    HW112932   0.862   4.725   3.142
 2695SOL    HW212933   0.832   4.818   3.274
 2696SOL     OW12934   0.916   4.634   2.153
 2696SOL    HW112935   0.979   4.672   2.085
 2696SOL    HW212936   0.956   4.551   2.192
 2697SOL     OW12937   1.504   5.331   1.906
 2697SOL    HW112938   1.412   5.368   1.913
 2697SOL    HW212939   1.542   5.351   1.816
 2698SOL     OW12940   1.614   5.016   3.151
 2698SOL    HW112941   1.674   5.019   3.231
 2698SOL    HW212942   1.539   5.080   3.164
 2699SOL     OW12943   0.590   5.211   2.353
 2699SOL    HW112944   0.632   5.153   2.283
 2699SOL    HW212945   0.546   5.290   2.309
 2700SOL     OW12946   1.709   4.109   3.243
 2700SOL    HW112947   1.782   4.178   3.247
 2700SOL    HW212948   1.737   4.034   3.184
 2701SOL     OW12949   0.255   5.072   2.152
 2701SOL    HW112950   0.159   5.073   2.125
 2701SOL    HW212951   0.267   5.125   2.236
 2702SOL     OW12952   0.105   4.737   3.588
 2702SOL    HW112953   0.028   4.704   3.642
 2702SOL    HW212954   0.190   4.707   3.630
 2703SOL     OW12955   0.672   3.927   3.351
 2703SOL    HW112956   0.762   3.911   3.311
 2703SOL    HW212957   0.680   3.932   3.450
 2704SOL     OW12958   0.075   4.069   1.895
 2704SOL    HW112959  -0.017   4.041   1.866
 2704SOL    HW212960   0.106   4.146   1.839
 2705SOL     OW12961   0.072   3.890   2.180
 2705SOL    HW112962   0.055   3.973   2.126
 2705SOL    HW212963   0.162   3.853   2.158
 2706SOL     OW12964   1.183   5.059   1.981
 2706SOL    HW112965   1.084   5.048   1.983
 2706SOL    HW212966   1.217   5.074   2.074
 2707SOL     OW12967   0.613   4.566   3.293
 2707SOL    HW112968   0.669   4.647   3.276
 2707SOL    HW212969   0.672   4.486   3.296
 2708SOL     OW12970   1.493   5.491   2.821
 2708SOL    HW112971   1.526   5.555   2.752
 2708SOL    HW212972   1.559   5.485   2.896
 2709SOL     OW12973   0.716   4.289   3.570
 2709SOL    HW112974   0.735   4.354   3.644
 2709SOL    HW212975   0.776   4.209   3.579
 2710SOL     OW12976   1.450   4.944   3.495
 2710SOL    HW112977   1.441   4.934   3.594
 2710SOL    HW212978   1.546   4.937   3.469
 2711SOL     OW12979   1.225   4.049   2.311
 2711SOL    HW112980   1.290   3.975   2.300
 2711SOL    HW212981   1.245   4.099   2.395
 2712SOL     OW12982   0.594   4.469   2.514
 2712SOL    HW112983   0.644   4.554   2.495
 2712SOL    HW212984   0.506   4.471   2.466
 2713SOL     OW12985   1.777   4.066   3.504
 2713SOL    HW112986   1.760   4.097   3.410
 2713SOL    HW212987   1.693   4.029   3.542
 2714SOL     OW12988   1.730   4.658   3.379
 2714SOL    HW112989   1.768   4.749   3.394
 2714SOL    HW212990   1.722   4.641   3.280
 2715SOL     OW12991   0.859   5.098   1.878
 2715SOL    HW112992   0.813   5.113   1.966
 2715SOL    HW212993   0.903   5.183   1.848
 2716SOL     OW12994   0.661   5.514   2.815
 2716SOL    HW112995   0.615   5.602   2.802
 2716SOL    HW212996   0.760   5.526   2.808
 2717SOL     OW12997   1.083   4.708   1.949
 2717SOL    HW112998   1.060   4.761   1.867
 2717SOL    HW212999   1.164   4.652   1.930
 2718SOL     OW13000   1.861   5.293   2.713
 2718SOL    HW113001   1.790   5.281   2.643
 2718SOL    HW213002   1.862   5.214   2.773
 2719SOL     OW13003   0.079   4.964   2.515
 2719SOL    HW113004   0.078   4.917   2.603
 2719SOL    HW213005   0.161   4.936   2.464
 2720SOL     OW13006   0.672   5.115   3.486
 2720SOL    HW113007   0.594   5.065   3.524
 2720SOL    HW213008   0.669   5.210   3.517
 2721SOL     OW13009   1.824   3.916   3.089
 2721SOL    HW113010   1.820   3.826   3.133
 2721SOL    HW213011   1.827   3.905   2.990
 2722SOL     OW13012   0.428   4.148   2.382
 2722SOL    HW113013   0.458   4.076   2.320
 2722SOL    HW213014   0.389   4.108   2.465
 2723SOL     OW13015   1.705   5.211   2.966
 2723SOL    HW113016   1.612   5.186   2.939
 2723SOL    HW213017   1.731   5.161   3.048
 2724SOL     OW13018   0.317   4.271   3.142
 2724SOL    HW113019   0.355   4.212   3.214
 2724SOL    HW213020   0.357   4.245   3.054
 2725SOL     OW13021   1.001   3.758   3.016
 2725SOL    HW113022   0.938   3.686   2.985
 2725SOL    HW213023   1.094   3.722   3.016
 2726SOL     OW13024   0.770   5.054   2.163
 2726SOL    HW113025   0.724   4.967   2.180
 2726SOL    HW213026   0.861   5.051   2.204
 2727SOL     OW13027   0.618   5.291   3.146
 2727SOL    HW113028   0.613   5.373   3.203
 2727SOL    HW213029   0.707   5.288   3.101
 2728SOL     OW13030   1.352   3.776   2.030
 2728SOL    HW113031   1.387   3.735   1.946
 2728SOL    HW213032   1.262   3.738   2.050
 2729SOL     OW13033   1.300   4.177   2.553
 2729SOL    HW113034   1.241   4.257   2.557
 2729SOL    HW213035   1.315   4.142   2.646
 2730SOL     OW13036   1.593   3.945   2.744
 2730SOL    HW113037   1.509   3.944   2.798
 2730SOL    HW213038   1.595   4.028   2.688
 2731SOL     OW13039   0.039   4.801   2.162
 2731SOL    HW113040   0.138   4.790   2.153
 2731SOL    HW213041  -0.001   4.715   2.194
 2732SOL     OW13042   0.875   5.370   2.199
 2732SOL    HW113043   0.798   5.335   2.145
 2732SOL    HW213044   0.843   5.441   2.261
 2733SOL     OW13045   0.230   4.352   3.837
 2733SOL    HW113046   0.137   4.350   3.874
 2733SOL    HW213047   0.231   4.313   3.745
 2734SOL     OW13048   0.225   3.999   4.720
 2734SOL    HW113049   0.260   3.982   4.812
 2734SOL    HW213050   0.137   3.954   4.708
 2735SOL     OW13051   0.019   4.092   4.371
 2735SOL    HW113052  -0.063   4.135   4.410
 2735SOL    HW213053  -0.009   4.019   4.308
 2736SOL     OW13054   0.569   4.999   4.889
 2736SOL    HW113055   0.476   4.992   4.852
 2736SOL    HW213056   0.580   5.088   4.933
 2737SOL     OW13057   1.555   5.235   4.427
 2737SOL    HW113058   1.498   5.219   4.508
 2737SOL    HW213059   1.496   5.245   4.347
 2738SOL     OW13060   1.135   4.427   4.441
 2738SOL    HW113061   1.192   4.505   4.416
 2738SOL    HW213062   1.075   4.453   4.517
 2739SOL     OW13063   1.755   4.331   3.955
 2739SOL    HW113064   1.743   4.318   3.856
 2739SOL    HW213065   1.725   4.250   4.004
 2740SOL     OW13066   0.768   4.868   4.747
 2740SOL    HW113067   0.690   4.885   4.807
 2740SOL    HW213068   0.802   4.955   4.711
 2741SOL     OW13069   0.685   4.736   4.389
 2741SOL    HW113070   0.754   4.720   4.459
 2741SOL    HW213071   0.612   4.793   4.427
 2742SOL     OW13072   0.686   4.885   5.527
 2742SOL    HW113073   0.746   4.964   5.541
 2742SOL    HW213074   0.600   4.916   5.486
 2743SOL     OW13075   0.335   5.159   4.785
 2743SOL    HW113076   0.257   5.128   4.732
 2743SOL    HW213077   0.393   5.217   4.728
 2744SOL     OW13078   1.460   5.229   5.063
 2744SOL    HW113079   1.484   5.323   5.089
 2744SOL    HW213080   1.444   5.175   5.145
 2745SOL     OW13081   0.438   4.116   5.223
 2745SOL    HW113082   0.520   4.060   5.232
 2745SOL    HW213083   0.357   4.058   5.227
 2746SOL     OW13084   1.603   4.171   4.461
 2746SOL    HW113085   1.529   4.217   4.411
 2746SOL    HW213086   1.654   4.239   4.514
 2747SOL     OW13087   0.231   5.437   4.207
 2747SOL    HW113088   0.265   5.514   4.261
 2747SOL    HW213089   0.275   5.437   4.117
 2748SOL     OW13090   1.127   5.065   5.414
 2748SOL    HW113091   1.174   5.065   5.502
 2748SOL    HW213092   1.079   4.978   5.403
 2749SOL     OW13093   0.230   5.158   4.262
 2749SOL    HW113094   0.204   5.254   4.262
 2749SOL    HW213095   0.159   5.104   4.307
 2750SOL     OW13096   0.240   4.815   4.610
 2750SOL    HW113097   0.254   4.731   4.662
 2750SOL    HW213098   0.185   4.879   4.665
 2751SOL     OW13099   0.620   5.510   5.163
 2751SOL    HW113100   0.528   5.493   5.198
 2751SOL    HW213101   0.648   5.602   5.189
 2752SOL     OW13102   0.606   4.688   3.847
 2752SOL    HW113103   0.613   4.772   3.793
 2752SOL    HW213104   0.652   4.701   3.935
 2753SOL     OW13105   1.594   3.838   5.204
 2753SOL    HW113106   1.576   3.905   5.132
 2753SOL    HW213107   1.591   3.884   5.293
 2754SOL     OW13108   0.122   4.367   4.287
 2754SOL    HW113109   0.077   4.279   4.304
 2754SOL    HW213110   0.121   4.421   4.371
 2755SOL     OW13111   1.689   4.646   4.336
 2755SOL    HW113112   1.784   4.617   4.344
 2755SOL    HW213113   1.681   4.711   4.261
 2756SOL     OW13114   1.641   4.832   4.156
 2756SOL    HW113115   1.727   4.834   4.104
 2756SOL    HW213116   1.655   4.879   4.244
 2757SOL     OW13117   0.613   5.089   4.450
 2757SOL    HW113118   0.564   5.002   4.459
 2757SOL    HW213119   0.590   5.132   4.363
 2758SOL     OW13120   1.293   4.952   5.147
 2758SOL    HW113121   1.330   4.879   5.089
 2758SOL    HW213122   1.345   4.957   5.232
 2759SOL     OW13123   0.809   3.728   4.226
 2759SOL    HW113124   0.849   3.819   4.217
 2759SOL    HW213125   0.709   3.736   4.232
 2760SOL     OW13126   1.525   4.723   3.914
 2760SOL    HW113127   1.462   4.647   3.927
 2760SOL    HW213128   1.573   4.741   4.000
 2761SOL     OW13129   0.317   3.975   5.525
 2761SOL    HW113130   0.388   4.046   5.531
 2761SOL    HW213131   0.229   4.014   5.553
 2762SOL     OW13132   1.466   5.141   4.677
 2762SOL    HW113133   1.407   5.147   4.757
 2762SOL    HW213134   1.451   5.053   4.631
 2763SOL     OW13135   1.667   5.438   4.296
 2763SOL    HW113136   1.626   5.415   4.208
 2763SOL    HW213137   1.649   5.364   4.361
 2764SOL     OW13138   0.598   4.453   3.994
 2764SOL    HW113139   0.622   4.522   3.926
 2764SOL    HW213140   0.520   4.486   4.048
 2765SOL     OW13141   1.281   4.069   4.668
 2765SOL    HW113142   1.195   4.019   4.655
 2765SOL    HW213143   1.343   4.015   4.724
 2766SOL     OW13144   1.576   5.386   4.031
 2766SOL    HW113145   1.665   5.432   4.034
 2766SOL    HW213146   1.555   5.362   3.936
 2767SOL     OW13147   1.394   4.193   5.398
 2767SOL    HW113148   1.374   4.236   5.486
 2767SOL    HW213149   1.472   4.131   5.407
 2768SOL     OW13150   0.991   4.134   4.966
 2768SOL    HW113151   0.914   4.168   5.020
 2768SOL    HW213152   0.957   4.083   4.887
 2769SOL     OW13153   1.041   4.425   4.153
 2769SOL    HW113154   1.067   4.421   4.249
 2769SOL    HW213155   0.956   4.374   4.139
 2770SOL     OW13156   0.076   4.535   4.513
 2770SOL    HW113157   0.175   4.523   4.522
 2770SOL    HW213158   0.052   4.630   4.534
 2771SOL     OW13159   0.130   5.545   5.295
 2771SOL    HW113160   0.120   5.530   5.394
 2771SOL    HW213161   0.044   5.581   5.259
 2772SOL     OW13162   0.865   4.072   3.919
 2772SOL    HW113163   0.924   4.135   3.870
 2772SOL    HW213164   0.884   3.978   3.890
 2773SOL     OW13165   1.719   4.309   5.555
 2773SOL    HW113166   1.693   4.398   5.519
 2773SOL    HW213167   1.717   4.241   5.482
 2774SOL     OW13168   1.362   4.868   4.269
 2774SOL    HW113169   1.445   4.839   4.221
 2774SOL    HW213170   1.313   4.935   4.213
 2775SOL     OW13171   0.550   3.920   4.609
 2775SOL    HW113172   0.545   3.915   4.709
 2775SOL    HW213173   0.552   4.016   4.580
 2776SOL     OW13174   1.008   5.180   4.201
 2776SOL    HW113175   0.962   5.252   4.149
 2776SOL    HW213176   1.004   5.200   4.299
 2777SOL     OW13177   0.351   5.525   4.577
 2777SOL    HW113178   0.401   5.439   4.583
 2777SOL    HW213179   0.416   5.602   4.574
 2778SOL     OW13180   1.795   4.790   4.597
 2778SOL    HW113181   1.733   4.775   4.521
 2778SOL    HW213182   1.743   4.801   4.682
 2779SOL     OW13183   1.227   5.274   5.230
 2779SOL    HW113184   1.233   5.197   5.294
 2779SOL    HW213185   1.175   5.248   5.150
 2780SOL     OW13186   0.321   4.667   3.966
 2780SOL    HW113187   0.403   4.706   3.924
 2780SOL    HW213188   0.294   4.585   3.917
 2781SOL     OW13189   1.458   4.459   4.452
 2781SOL    HW113190   1.453   4.394   4.527
 2781SOL    HW213191   1.538   4.518   4.465
 2782SOL     OW13192   0.461   4.990   5.451
 2782SOL    HW113193   0.411   4.991   5.365
 2782SOL    HW213194   0.398   4.972   5.527
 2783SOL     OW13195   1.111   5.500   3.961
 2783SOL    HW113196   1.051   5.438   4.011
 2783SOL    HW213197   1.142   5.456   3.876
 2784SOL     OW13198   0.202   4.009   5.222
 2784SOL    HW113199   0.122   4.069   5.209
 2784SOL    HW213200   0.192   3.960   5.308
 2785SOL     OW13201   1.632   5.101   3.805
 2785SOL    HW113202   1.600   5.195   3.795
 2785SOL    HW213203   1.556   5.038   3.793
 2786SOL     OW13204   0.464   5.467   4.047
 2786SOL    HW113205   0.497   5.506   4.133
 2786SOL    HW213206   0.540   5.460   3.982
 2787SOL     OW13207   1.400   3.831   4.150
 2787SOL    HW113208   1.376   3.794   4.060
 2787SOL    HW213209   1.499   3.847   4.154
 2788SOL     OW13210   0.249   5.509   4.965
 2788SOL    HW113211   0.306   5.444   5.015
 2788SOL    HW213212   0.233   5.476   4.872
 2789SOL     OW13213   0.940   5.422   4.628
 2789SOL    HW113214   1.020   5.365   4.649
 2789SOL    HW213215   0.891   5.382   4.551
 2790SOL     OW13216   0.382   4.424   4.204
 2790SOL    HW113217   0.427   4.334   4.201
 2790SOL    HW213218   0.288   4.413   4.237
 2791SOL     OW13219   1.547   3.946   5.453
 2791SOL    HW113220   1.542   3.983   5.545
 2791SOL    HW213221   1.475   3.877   5.441
 2792SOL     OW13222   0.614   3.846   3.841
 2792SOL    HW113223   0.712   3.824   3.848
 2792SOL    HW213224   0.583   3.829   3.748
 2793SOL     OW13225   0.781   3.988   5.473
 2793SOL    HW113226   0.848   3.927   5.516
 2793SOL    HW213227   0.708   4.007   5.538
 2794SOL     OW13228   0.888   5.238   4.919
 2794SOL    HW113229   0.865   5.213   4.825
 2794SOL    HW213230   0.949   5.169   4.958
 2795SOL     OW13231   1.351   4.314   5.157
 2795SOL    HW113232   1.379   4.271   5.242
 2795SOL    HW213233   1.376   4.410   5.158
 2796SOL     OW13234   0.803   5.126   4.648
 2796SOL    HW113235   0.893   5.140   4.606
 2796SOL    HW213236   0.732   5.128   4.577
 2797SOL     OW13237   0.922   4.227   4.623
 2797SOL    HW113238   0.897   4.218   4.527
 2797SOL    HW213239   0.970   4.145   4.654
 2798SOL     OW13240   0.539   3.788   4.236
 2798SOL    HW113241   0.458   3.789   4.294
 2798SOL    HW213242   0.542   3.871   4.181
 2799SOL     OW13243   1.434   4.912   3.765
 2799SOL    HW113244   1.466   4.836   3.822
 2799SOL    HW213245   1.342   4.939   3.795
 2800SOL     OW13246   0.297   3.759   3.895
 2800SOL    HW113247   0.346   3.843   3.874
 2800SOL    HW213248   0.359   3.694   3.940
 2801SOL     OW13249   0.935   3.960   4.204
 2801SOL    HW113250   0.887   4.001   4.126
 2801SOL    HW213251   1.034   3.958   4.185
 2802SOL     OW13252   1.076   4.407   5.188
 2802SOL    HW113253   0.996   4.346   5.191
 2802SOL    HW213254   1.157   4.354   5.164
 2803SOL     OW13255   1.227   5.294   4.517
 2803SOL    HW113256   1.248   5.368   4.452
 2803SOL    HW213257   1.295   5.294   4.590
 2804SOL     OW13258   0.459   4.876   4.465
 2804SOL    HW113259   0.388   4.849   4.530
 2804SOL    HW213260   0.433   4.848   4.372
 2805SOL     OW13261   1.271   5.521   4.315
 2805SOL    HW113262   1.315   5.585   4.251
 2805SOL    HW213263   1.221   5.573   4.385
 2806SOL     OW13264   1.032   4.273   3.740
 2806SOL    HW113265   0.991   4.355   3.701
 2806SOL    HW213266   1.096   4.299   3.813
 2807SOL     OW13267   0.078   4.280   5.110
 2807SOL    HW113268   0.170   4.279   5.069
 2807SOL    HW213269   0.072   4.354   5.177
 2808SOL     OW13270   0.866   4.178   4.366
 2808SOL    HW113271   0.834   4.250   4.304
 2808SOL    HW213272   0.890   4.097   4.313
 2809SOL     OW13273   1.017   3.763   4.477
 2809SOL    HW113274   0.945   3.768   4.408
 2809SOL    HW213275   0.993   3.694   4.546
 2810SOL     OW13276   1.429   4.897   4.591
 2810SOL    HW113277   1.374   4.813   4.584
 2810SOL    HW213278   1.455   4.926   4.499
 2811SOL     OW13279   1.466   4.314   4.716
 2811SOL    HW113280   1.436   4.219   4.723
 2811SOL    HW213281   1.539   4.330   4.782
 2812SOL     OW13282   1.857   4.557   4.101
 2812SOL    HW113283   1.899   4.493   4.165
 2812SOL    HW213284   1.819   4.506   4.023
 2813SOL     OW13285   0.488   5.109   3.898
 2813SOL    HW113286   0.401   5.094   3.945
 2813SOL    HW213287   0.471   5.135   3.803
 2814SOL     OW13288   1.664   5.004   4.381
 2814SOL    HW113289   1.763   5.012   4.395
 2814SOL    HW213290   1.619   5.088   4.412
 2815SOL     OW13291   1.390   4.299   3.802
 2815SOL    HW113292   1.336   4.278   3.883
 2815SOL    HW213293   1.481   4.258   3.811
 2816SOL     OW13294   0.527   3.980   4.052
 2816SOL    HW113295   0.554   3.921   3.977
 2816SOL    HW213296   0.527   4.075   4.021
 2817SOL     OW13297   1.064   5.071   5.064
 2817SOL    HW113298   0.984   5.048   5.119
 2817SOL    HW213299   1.147   5.045   5.113
 2818SOL     OW13300   1.592   5.353   5.349
 2818SOL    HW113301   1.619   5.387   5.259
 2818SOL    HW213302   1.671   5.315   5.395
 2819SOL     OW13303   1.111   4.919   4.824
 2819SOL    HW113304   1.071   4.963   4.905
 2819SOL    HW213305   1.070   4.956   4.741
 2820SOL     OW13306   1.638   4.823   4.803
 2820SOL    HW113307   1.643   4.904   4.862
 2820SOL    HW213308   1.552   4.825   4.752
 2821SOL     OW13309   0.705   4.774   4.092
 2821SOL    HW113310   0.691   4.781   4.191
 2821SOL    HW213311   0.789   4.723   4.074
 2822SOL     OW13312   1.274   4.110   4.986
 2822SOL    HW113313   1.295   4.184   5.050
 2822SOL    HW213314   1.185   4.127   4.943
 2823SOL     OW13315   0.064   5.288   5.055
 2823SOL    HW113316   0.018   5.370   5.021
 2823SOL    HW213317   0.162   5.307   5.064
 2824SOL     OW13318   0.367   4.824   4.225
 2824SOL    HW113319   0.360   4.907   4.169
 2824SOL    HW213320   0.371   4.744   4.165
 2825SOL     OW13321   0.566   4.261   4.589
 2825SOL    HW113322   0.578   4.327   4.515
 2825SOL    HW213323   0.612   4.295   4.672
 2826SOL     OW13324   1.252   5.072   4.112
 2826SOL    HW113325   1.302   5.149   4.152
 2826SOL    HW213326   1.157   5.074   4.144
 2827SOL     OW13327   1.272   5.169   4.866
 2827SOL    HW113328   1.319   5.182   4.953
 2827SOL    HW213329   1.206   5.095   4.875
 2828SOL     OW13330   1.582   4.363   4.196
 2828SOL    HW113331   1.551   4.424   4.269
 2828SOL    HW213332   1.632   4.415   4.127
 2829SOL     OW13333   0.354   5.234   5.053
 2829SOL    HW113334   0.333   5.190   4.966
 2829SOL    HW213335   0.451   5.260   5.056
 2830SOL     OW13336   1.013   3.829   5.494
 2830SOL    HW113337   1.019   3.914   5.442
 2830SOL    HW213338   1.045   3.753   5.437
 2831SOL     OW13339   0.504   3.774   5.464
 2831SOL    HW113340   0.462   3.717   5.394
 2831SOL    HW213341   0.438   3.843   5.496
 2832SOL     OW13342   0.573   4.594   4.753
 2832SOL    HW113343   0.617   4.683   4.744
 2832SOL    HW213344   0.510   4.594   4.830
 2833SOL     OW13345   1.360   4.586   4.769
 2833SOL    HW113346   1.285   4.586   4.703
 2833SOL    HW213347   1.397   4.494   4.778
 2834SOL     OW13348   1.209   4.249   3.999
 2834SOL    HW113349   1.222   4.165   4.053
 2834SOL    HW213350   1.180   4.323   4.059
 2835SOL     OW13351   0.307   3.937   4.955
 2835SOL    HW113352   0.284   3.974   5.045
 2835SOL    HW213353   0.277   3.842   4.949
 2836SOL     OW13354   0.037   5.034   5.006
 2836SOL    HW113355   0.090   4.985   5.074
 2836SOL    HW213356   0.059   5.132   5.011
 2837SOL     OW13357   0.732   4.358   4.788
 2837SOL    HW113358   0.791   4.332   4.712
 2837SOL    HW213359   0.704   4.454   4.777
 2838SOL     OW13360   0.307   3.787   4.342
 2838SOL    HW113361   0.296   3.881   4.375
 2838SOL    HW213362   0.302   3.724   4.419
 2839SOL     OW13363   1.622   4.091   4.098
 2839SOL    HW113364   1.624   4.015   4.162
 2839SOL    HW213365   1.574   4.168   4.138
 2840SOL     OW13366   1.023   4.490   4.690
 2840SOL    HW113367   1.038   4.511   4.786
 2840SOL    HW213368   0.993   4.395   4.681
 2841SOL     OW13369   0.980   5.297   5.424
 2841SOL    HW113370   0.960   5.341   5.336
 2841SOL    HW213371   1.019   5.206   5.408
 2842SOL     OW13372   1.859   5.242   5.329
 2842SOL    HW113373   1.873   5.269   5.234
 2842SOL    HW213374   1.942   5.264   5.382
 2843SOL     OW13375   0.350   4.622   5.528
 2843SOL    HW113376   0.426   4.666   5.576
 2843SOL    HW213377   0.385   4.575   5.446
 2844SOL     OW13378   1.540   3.998   3.849
 2844SOL    HW113379   1.479   3.923   3.872
 2844SOL    HW213380   1.562   4.050   3.932
 2845SOL     OW13381   1.303   4.562   3.766
 2845SOL    HW113382   1.337   4.469   3.781
 2845SOL    HW213383   1.321   4.589   3.671
 2846SOL     OW13384   1.068   5.057   4.573
 2846SOL    HW113385   1.075   4.973   4.518
 2846SOL    HW213386   1.130   5.126   4.537
 2847SOL     OW13387   0.319   4.534   4.673
 2847SOL    HW113388   0.412   4.570   4.678
 2847SOL    HW213389   0.313   4.449   4.725
 2848SOL     OW13390   0.339   4.233   4.730
 2848SOL    HW113391   0.287   4.150   4.713
 2848SOL    HW213392   0.416   4.238   4.666
 2849SOL     OW13393   1.138   4.104   5.402
 2849SOL    HW113394   1.093   4.167   5.466
 2849SOL    HW213395   1.231   4.135   5.385
 2850SOL     OW13396   1.160   3.931   5.201
 2850SOL    HW113397   1.160   3.995   5.278
 2850SOL    HW213398   1.188   3.979   5.118
 2851SOL     OW13399   0.008   5.050   3.924
 2851SOL    HW113400  -0.085   5.071   3.893
 2851SOL    HW213401   0.018   4.951   3.937
 2852SOL     OW13402   0.088   5.525   4.651
 2852SOL    HW113403   0.046   5.439   4.624
 2852SOL    HW213404   0.182   5.528   4.617
 2853SOL     OW13405   0.504   5.292   4.634
 2853SOL    HW113406   0.570   5.366   4.643
 2853SOL    HW213407   0.548   5.213   4.592
 2854SOL     OW13408   1.002   4.520   4.962
 2854SOL    HW113409   1.043   4.488   5.048
 2854SOL    HW213410   0.906   4.493   4.959
 2855SOL     OW13411   0.040   4.268   4.838
 2855SOL    HW113412   0.125   4.235   4.797
 2855SOL    HW213413   0.053   4.283   4.936
 2856SOL     OW13414   0.189   4.244   5.446
 2856SOL    HW113415   0.248   4.204   5.376
 2856SOL    HW213416   0.131   4.315   5.405
 2857SOL     OW13417   1.369   4.674   5.384
 2857SOL    HW113418   1.408   4.763   5.404
 2857SOL    HW213419   1.379   4.654   5.287
 2858SOL     OW13420   0.815   4.296   4.049
 2858SOL    HW113421   0.822   4.207   4.003
 2858SOL    HW213422   0.721   4.330   4.041
 2859SOL     OW13423   1.657   4.328   4.930
 2859SOL    HW113424   1.619   4.259   4.992
 2859SOL    HW213425   1.739   4.292   4.886
 2860SOL     OW13426   0.252   5.288   5.468
 2860SOL    HW113427   0.222   5.345   5.544
 2860SOL    HW213428   0.245   5.191   5.494
 2861SOL     OW13429   0.671   4.188   4.993
 2861SOL    HW113430   0.637   4.099   4.963
 2861SOL    HW213431   0.697   4.242   4.913
 2862SOL     OW13432   0.930   5.402   5.189
 2862SOL    HW113433   0.906   5.384   5.094
 2862SOL    HW213434   0.960   5.496   5.199
 2863SOL     OW13435   0.473   4.224   3.915
 2863SOL    HW113436   0.534   4.304   3.919
 2863SOL    HW213437   0.378   4.255   3.922
 2864SOL     OW13438   0.159   4.861   5.190
 2864SOL    HW113439   0.181   4.800   5.266
 2864SOL    HW213440   0.169   4.812   5.104
 2865SOL     OW13441   1.347   4.783   4.958
 2865SOL    HW113442   1.371   4.720   4.884
 2865SOL    HW213443   1.257   4.823   4.940
 2866SOL     OW13444   1.302   4.579   4.033
 2866SOL    HW113445   1.216   4.548   4.075
 2866SOL    HW213446   1.298   4.565   3.934
 2867SOL     OW13447   1.759   5.471   4.878
 2867SOL    HW113448   1.820   5.501   4.805
 2867SOL    HW213449   1.721   5.382   4.856
 2868SOL     OW13450   0.083   4.982   4.746
 2868SOL    HW113451   0.078   4.981   4.846
 2868SOL    HW213452   0.000   4.941   4.708
 2869SOL     OW13453   0.688   5.386   5.440
 2869SOL    HW113454   0.632   5.467   5.449
 2869SOL    HW213455   0.740   5.390   5.354
 2870SOL     OW13456   1.726   3.859   4.247
 2870SOL    HW113457   1.799   3.842   4.180
 2870SOL    HW213458   1.695   3.772   4.285
 2871SOL     OW13459   1.388   5.297   4.201
 2871SOL    HW113460   1.455   5.309   4.127
 2871SOL    HW213461   1.348   5.386   4.224
 2872SOL     OW13462   0.130   5.518   5.575
 2872SOL    HW113463   0.089   5.444   5.628
 2872SOL    HW213464   0.194   5.569   5.633
 2873SOL     OW13465   1.280   4.651   4.396
 2873SOL    HW113466   1.340   4.570   4.398
 2873SOL    HW213467   1.320   4.720   4.336
 2874SOL     OW13468   0.830   4.997   5.146
 2874SOL    HW113469   0.825   5.030   5.241
 2874SOL    HW213470   0.744   5.016   5.100
 2875SOL     OW13471   0.672   5.340   3.878
 2875SOL    HW113472   0.681   5.350   3.779
 2875SOL    HW213473   0.632   5.251   3.899
 2876SOL     OW13474   1.841   3.899   4.687
 2876SOL    HW113475   1.880   3.814   4.651
 2876SOL    HW213476   1.743   3.901   4.668
 2877SOL     OW13477   0.263   4.050   4.444
 2877SOL    HW113478   0.184   4.101   4.410
 2877SOL    HW213479   0.254   4.035   4.542
 2878SOL     OW13480   1.194   5.336   3.755
 2878SOL    HW113481   1.200   5.243   3.792
 2878SOL    HW213482   1.135   5.336   3.675
 2879SOL     OW13483   0.822   4.726   5.096
 2879SOL    HW113484   0.862   4.725   5.004
 2879SOL    HW213485   0.832   4.818   5.136
 2880SOL     OW13486   0.916   4.634   4.015
 2880SOL    HW113487   0.979   4.672   3.947
 2880SOL    HW213488   0.956   4.551   4.054
 2881SOL     OW13489   1.504   5.331   3.768
 2881SOL    HW113490   1.412   5.368   3.775
 2881SOL    HW213491   1.542   5.351   3.678
 2882SOL     OW13492   0.372   5.012   5.214
 2882SOL    HW113493   0.359   5.105   5.180
 2882SOL    HW213494   0.288   4.960   5.201
 2883SOL     OW13495   1.614   5.016   5.013
 2883SOL    HW113496   1.674   5.019   5.093
 2883SOL    HW213497   1.539   5.080   5.026
 2884SOL     OW13498   1.039   4.822   4.420
 2884SOL    HW113499   0.969   4.775   4.474
 2884SOL    HW213500   1.098   4.754   4.377
 2885SOL     OW13501   1.014   3.960   4.695
 2885SOL    HW113502   1.006   3.924   4.602
 2885SOL    HW213503   1.012   3.884   4.760
 2886SOL     OW13504   0.590   5.211   4.215
 2886SOL    HW113505   0.632   5.153   4.145
 2886SOL    HW213506   0.546   5.290   4.171
 2887SOL     OW13507   1.709   4.109   5.105
 2887SOL    HW113508   1.782   4.178   5.109
 2887SOL    HW213509   1.737   4.034   5.046
 2888SOL     OW13510   0.255   5.072   4.014
 2888SOL    HW113511   0.159   5.073   3.987
 2888SOL    HW213512   0.267   5.125   4.098
 2889SOL     OW13513   0.105   4.737   5.450
 2889SOL    HW113514   0.028   4.704   5.504
 2889SOL    HW213515   0.190   4.707   5.492
 2890SOL     OW13516   0.672   3.927   5.213
 2890SOL    HW113517   0.762   3.911   5.173
 2890SOL    HW213518   0.680   3.932   5.312
 2891SOL     OW13519   0.075   4.069   3.757
 2891SOL    HW113520  -0.017   4.041   3.728
 2891SOL    HW213521   0.106   4.146   3.701
 2892SOL     OW13522   1.440   4.580   5.122
 2892SOL    HW113523   1.383   4.632   5.059
 2892SOL    HW213524   1.536   4.592   5.098
 2893SOL     OW13525   0.072   3.890   4.042
 2893SOL    HW113526   0.055   3.973   3.988
 2893SOL    HW213527   0.162   3.853   4.020
 2894SOL     OW13528   1.183   5.059   3.843
 2894SOL    HW113529   1.084   5.048   3.845
 2894SOL    HW213530   1.217   5.074   3.936
 2895SOL     OW13531   1.493   5.491   4.683
 2895SOL    HW113532   1.526   5.555   4.614
 2895SOL    HW213533   1.559   5.485   4.758
 2896SOL     OW13534   1.450   4.944   5.357
 2896SOL    HW113535   1.441   4.934   5.456
 2896SOL    HW213536   1.546   4.937   5.331
 2897SOL     OW13537   0.390   5.465   5.284
 2897SOL    HW113538   0.299   5.506   5.282
 2897SOL    HW213539   0.383   5.371   5.316
 2898SOL     OW13540   1.225   4.049   4.173
 2898SOL    HW113541   1.290   3.975   4.162
 2898SOL    HW213542   1.245   4.099   4.257
 2899SOL     OW13543   0.594   4.469   4.376
 2899SOL    HW113544   0.644   4.554   4.357
 2899SOL    HW213545   0.506   4.471   4.328
 2900SOL     OW13546   1.777   4.066   5.366
 2900SOL    HW113547   1.760   4.097   5.272
 2900SOL    HW213548   1.693   4.029   5.404
 2901SOL     OW13549   0.859   5.098   3.740
 2901SOL    HW113550   0.813   5.113   3.828
 2901SOL    HW213551   0.903   5.183   3.710
 2902SOL     OW13552   0.661   5.514   4.677
 2902SOL    HW113553   0.615   5.602   4.664
 2902SOL    HW213554   0.760   5.526   4.670
 2903SOL     OW13555   0.859   4.680   4.585
 2903SOL    HW113556   0.913   4.611   4.633
 2903SOL    HW213557   0.827   4.749   4.651
 2904SOL     OW13558   1.083   4.708   3.811
 2904SOL    HW113559   1.060   4.761   3.729
 2904SOL    HW213560   1.164   4.652   3.792
 2905SOL     OW13561   1.861   5.293   4.575
 2905SOL    HW113562   1.790   5.281   4.505
 2905SOL    HW213563   1.862   5.214   4.635
 2906SOL     OW13564   0.221   5.038   5.568
 2906SOL    HW113565   0.156   4.965   5.547
 2906SOL    HW213566   0.225   5.052   5.666
 2907SOL     OW13567   0.079   4.964   4.377
 2907SOL    HW113568   0.078   4.917   4.465
 2907SOL    HW213569   0.161   4.936   4.326
 2908SOL     OW13570   0.672   5.115   5.348
 2908SOL    HW113571   0.594   5.065   5.386
 2908SOL    HW213572   0.669   5.210   5.379
 2909SOL     OW13573   1.824   3.916   4.951
 2909SOL    HW113574   1.820   3.826   4.995
 2909SOL    HW213575   1.827   3.905   4.852
 2910SOL     OW13576   0.428   4.148   4.244
 2910SOL    HW113577   0.458   4.076   4.182
 2910SOL    HW213578   0.389   4.108   4.327
 2911SOL     OW13579   1.705   5.211   4.828
 2911SOL    HW113580   1.612   5.186   4.801
 2911SOL    HW213581   1.731   5.161   4.910
 2912SOL     OW13582   0.317   4.271   5.004
 2912SOL    HW113583   0.355   4.212   5.076
 2912SOL    HW213584   0.357   4.245   4.916
 2913SOL     OW13585   0.812   5.310   4.411
 2913SOL    HW113586   0.844   5.320   4.317
 2913SOL    HW213587   0.733   5.248   4.413
 2914SOL     OW13588   1.424   3.938   4.836
 2914SOL    HW113589   1.476   3.873   4.891
 2914SOL    HW213590   1.375   4.001   4.897
 2915SOL     OW13591   1.001   3.758   4.878
 2915SOL    HW113592   0.938   3.686   4.847
 2915SOL    HW213593   1.094   3.722   4.878
 2916SOL     OW13594   0.770   5.054   4.025
 2916SOL    HW113595   0.724   4.967   4.042
 2916SOL    HW213596   0.861   5.051   4.066
 2917SOL     OW13597   0.618   5.291   5.008
 2917SOL    HW113598   0.613   5.373   5.065
 2917SOL    HW213599   0.707   5.288   4.963
 2918SOL     OW13600   1.352   3.776   3.892
 2918SOL    HW113601   1.387   3.735   3.808
 2918SOL    HW213602   1.262   3.738   3.912
 2919SOL     OW13603   1.300   4.177   4.415
 2919SOL    HW113604   1.241   4.257   4.419
 2919SOL    HW213605   1.315   4.142   4.508
 2920SOL     OW13606   1.593   3.945   4.606
 2920SOL    HW113607   1.509   3.944   4.660
 2920SOL    HW213608   1.595   4.028   4.550
 2921SOL     OW13609   0.039   4.801   4.024
 2921SOL    HW113610   0.138   4.790   4.015
 2921SOL    HW213611  -0.001   4.715   4.056
 2922SOL     OW13612   0.875   5.370   4.061
 2922SOL    HW113613   0.798   5.335   4.007
 2922SOL    HW213614   0.843   5.441   4.123
 2923SOL     OW13615   0.230   4.352   5.699
 2923SOL    HW113616   0.137   4.350   5.736
 2923SOL    HW213617   0.231   4.313   5.607
 2924SOL     OW13618   0.225   3.999   6.582
 2924SOL    HW113619   0.260   3.982   6.674
 2924SOL    HW213620   0.137   3.954   6.570
 2925SOL     OW13621   1.555   5.235   6.289
 2925SOL    HW113622   1.498   5.219   6.370
 2925SOL    HW213623   1.496   5.245   6.209
 2926SOL     OW13624   1.135   4.427   6.303
 2926SOL    HW113625   1.192   4.505   6.278
 2926SOL    HW213626   1.075   4.453   6.379
 2927SOL     OW13627   0.850   4.522   7.409
 2927SOL    HW113628   0.846   4.598   7.474
 2927SOL    HW213629   0.872   4.558   7.318
 2928SOL     OW13630   0.685   4.736   6.251
 2928SOL    HW113631   0.754   4.720   6.321
 2928SOL    HW213632   0.612   4.793   6.289
 2929SOL     OW13633   0.686   4.885   7.389
 2929SOL    HW113634   0.746   4.964   7.403
 2929SOL    HW213635   0.600   4.916   7.348
 2930SOL     OW13636   0.335   5.159   6.647
 2930SOL    HW113637   0.257   5.128   6.594
 2930SOL    HW213638   0.393   5.217   6.590
 2931SOL     OW13639   1.460   5.229   6.925
 2931SOL    HW113640   1.484   5.323   6.951
 2931SOL    HW213641   1.444   5.175   7.007
 2932SOL     OW13642   0.438   4.116   7.085
 2932SOL    HW113643   0.520   4.060   7.094
 2932SOL    HW213644   0.357   4.058   7.089
 2933SOL     OW13645   0.231   5.437   6.069
 2933SOL    HW113646   0.265   5.514   6.123
 2933SOL    HW213647   0.275   5.437   5.979
 2934SOL     OW13648   1.127   5.065   7.276
 2934SOL    HW113649   1.174   5.065   7.364
 2934SOL    HW213650   1.079   4.978   7.265
 2935SOL     OW13651   0.230   5.158   6.124
 2935SOL    HW113652   0.204   5.254   6.124
 2935SOL    HW213653   0.159   5.104   6.169
 2936SOL     OW13654   0.240   4.815   6.472
 2936SOL    HW113655   0.254   4.731   6.524
 2936SOL    HW213656   0.185   4.879   6.527
 2937SOL     OW13657   0.620   5.510   7.025
 2937SOL    HW113658   0.528   5.493   7.060
 2937SOL    HW213659   0.648   5.602   7.051
 2938SOL     OW13660   0.606   4.688   5.709
 2938SOL    HW113661   0.613   4.772   5.655
 2938SOL    HW213662   0.652   4.701   5.797
 2939SOL     OW13663   1.594   3.838   7.066
 2939SOL    HW113664   1.576   3.905   6.994
 2939SOL    HW213665   1.591   3.884   7.155
 2940SOL     OW13666   1.842   5.491   5.945
 2940SOL    HW113667   1.896   5.462   6.025
 2940SOL    HW213668   1.872   5.581   5.916
 2941SOL     OW13669   0.027   5.320   5.703
 2941SOL    HW113670   0.008   5.224   5.724
 2941SOL    HW213671  -0.006   5.378   5.778
 2942SOL     OW13672   1.689   4.646   6.198
 2942SOL    HW113673   1.784   4.617   6.206
 2942SOL    HW213674   1.681   4.711   6.123
 2943SOL     OW13675   1.641   4.832   6.018
 2943SOL    HW113676   1.727   4.834   5.966
 2943SOL    HW213677   1.655   4.879   6.106
 2944SOL     OW13678   0.113   4.461   7.183
 2944SOL    HW113679   0.201   4.448   7.228
 2944SOL    HW213680   0.100   4.558   7.161
 2945SOL     OW13681   0.613   5.089   6.312
 2945SOL    HW113682   0.564   5.002   6.321
 2945SOL    HW213683   0.590   5.132   6.225
 2946SOL     OW13684   1.293   4.952   7.009
 2946SOL    HW113685   1.330   4.879   6.951
 2946SOL    HW213686   1.345   4.957   7.094
 2947SOL     OW13687   0.809   3.728   6.088
 2947SOL    HW113688   0.849   3.819   6.079
 2947SOL    HW213689   0.709   3.736   6.094
 2948SOL     OW13690   1.525   4.723   5.776
 2948SOL    HW113691   1.462   4.647   5.789
 2948SOL    HW213692   1.573   4.741   5.862
 2949SOL     OW13693   0.317   3.975   7.387
 2949SOL    HW113694   0.388   4.046   7.393
 2949SOL    HW213695   0.229   4.014   7.415
 2950SOL     OW13696   1.466   5.141   6.539
 2950SOL    HW113697   1.407   5.147   6.619
 2950SOL    HW213698   1.451   5.053   6.493
 2951SOL     OW13699   1.667   5.438   6.158
 2951SOL    HW113700   1.626   5.415   6.070
 2951SOL    HW213701   1.649   5.364   6.223
 2952SOL     OW13702   1.281   4.069   6.530
 2952SOL    HW113703   1.195   4.019   6.517
 2952SOL    HW213704   1.343   4.015   6.586
 2953SOL     OW13705   1.576   5.386   5.893
 2953SOL    HW113706   1.665   5.432   5.896
 2953SOL    HW213707   1.555   5.362   5.798
 2954SOL     OW13708   0.807   4.329   7.051
 2954SOL    HW113709   0.760   4.326   7.140
 2954SOL    HW213710   0.756   4.274   6.985
 2955SOL     OW13711   1.394   4.193   7.260
 2955SOL    HW113712   1.374   4.236   7.348
 2955SOL    HW213713   1.472   4.131   7.269
 2956SOL     OW13714   0.973   4.614   7.158
 2956SOL    HW113715   1.019   4.530   7.129
 2956SOL    HW213716   0.917   4.648   7.083
 2957SOL     OW13717   0.991   4.134   6.828
 2957SOL    HW113718   0.914   4.168   6.882
 2957SOL    HW213719   0.957   4.083   6.749
 2958SOL     OW13720   1.041   4.425   6.015
 2958SOL    HW113721   1.067   4.421   6.111
 2958SOL    HW213722   0.956   4.374   6.001
 2959SOL     OW13723   0.076   4.535   6.375
 2959SOL    HW113724   0.175   4.523   6.384
 2959SOL    HW213725   0.052   4.630   6.396
 2960SOL     OW13726   0.130   5.545   7.157
 2960SOL    HW113727   0.120   5.530   7.256
 2960SOL    HW213728   0.044   5.581   7.121
 2961SOL     OW13729   0.865   4.072   5.781
 2961SOL    HW113730   0.924   4.135   5.732
 2961SOL    HW213731   0.884   3.978   5.752
 2962SOL     OW13732   1.719   4.309   7.417
 2962SOL    HW113733   1.693   4.398   7.381
 2962SOL    HW213734   1.717   4.241   7.344
 2963SOL     OW13735   1.362   4.868   6.131
 2963SOL    HW113736   1.445   4.839   6.083
 2963SOL    HW213737   1.313   4.935   6.075
 2964SOL     OW13738   0.550   3.920   6.471
 2964SOL    HW113739   0.545   3.915   6.571
 2964SOL    HW213740   0.552   4.016   6.442
 2965SOL     OW13741   1.008   5.180   6.063
 2965SOL    HW113742   0.962   5.252   6.011
 2965SOL    HW213743   1.004   5.200   6.161
 2966SOL     OW13744   0.351   5.525   6.439
 2966SOL    HW113745   0.401   5.439   6.445
 2966SOL    HW213746   0.416   5.602   6.436
 2967SOL     OW13747   1.795   4.790   6.459
 2967SOL    HW113748   1.733   4.775   6.383
 2967SOL    HW213749   1.743   4.801   6.544
 2968SOL     OW13750   1.227   5.274   7.092
 2968SOL    HW113751   1.233   5.197   7.156
 2968SOL    HW213752   1.175   5.248   7.012
 2969SOL     OW13753   1.458   4.459   6.314
 2969SOL    HW113754   1.453   4.394   6.389
 2969SOL    HW213755   1.538   4.518   6.327
 2970SOL     OW13756   0.461   4.990   7.313
 2970SOL    HW113757   0.411   4.991   7.227
 2970SOL    HW213758   0.398   4.972   7.389
 2971SOL     OW13759   1.111   5.500   5.823
 2971SOL    HW113760   1.051   5.438   5.873
 2971SOL    HW213761   1.142   5.456   5.738
 2972SOL     OW13762   0.202   4.009   7.084
 2972SOL    HW113763   0.122   4.069   7.071
 2972SOL    HW213764   0.192   3.960   7.170
 2973SOL     OW13765   1.632   5.101   5.667
 2973SOL    HW113766   1.600   5.195   5.657
 2973SOL    HW213767   1.556   5.038   5.655
 2974SOL     OW13768   0.464   5.467   5.909
 2974SOL    HW113769   0.497   5.506   5.995
 2974SOL    HW213770   0.540   5.460   5.844
 2975SOL     OW13771   1.400   3.831   6.012
 2975SOL    HW113772   1.376   3.794   5.922
 2975SOL    HW213773   1.499   3.847   6.016
 2976SOL     OW13774   0.249   5.509   6.827
 2976SOL    HW113775   0.306   5.444   6.877
 2976SOL    HW213776   0.233   5.476   6.734
 2977SOL     OW13777   0.940   5.422   6.490
 2977SOL    HW113778   1.020   5.365   6.511
 2977SOL    HW213779   0.891   5.382   6.413
 2978SOL     OW13780   1.547   3.946   7.315
 2978SOL    HW113781   1.542   3.983   7.407
 2978SOL    HW213782   1.475   3.877   7.303
 2979SOL     OW13783   0.614   3.846   5.703
 2979SOL    HW113784   0.712   3.824   5.710
 2979SOL    HW213785   0.583   3.829   5.610
 2980SOL     OW13786   0.781   3.988   7.335
 2980SOL    HW113787   0.848   3.927   7.378
 2980SOL    HW213788   0.708   4.007   7.400
 2981SOL     OW13789   0.888   5.238   6.781
 2981SOL    HW113790   0.865   5.213   6.687
 2981SOL    HW213791   0.949   5.169   6.820
 2982SOL     OW13792   1.351   4.314   7.019
 2982SOL    HW113793   1.379   4.271   7.104
 2982SOL    HW213794   1.376   4.410   7.020
 2983SOL     OW13795   0.803   5.126   6.510
 2983SOL    HW113796   0.893   5.140   6.468
 2983SOL    HW213797   0.732   5.128   6.439
 2984SOL     OW13798   0.922   4.227   6.485
 2984SOL    HW113799   0.897   4.218   6.389
 2984SOL    HW213800   0.970   4.145   6.516
 2985SOL     OW13801   0.539   3.788   6.098
 2985SOL    HW113802   0.458   3.789   6.156
 2985SOL    HW213803   0.542   3.871   6.043
 2986SOL     OW13804   1.434   4.912   5.627
 2986SOL    HW113805   1.466   4.836   5.684
 2986SOL    HW213806   1.342   4.939   5.657
 2987SOL     OW13807   0.297   3.759   5.757
 2987SOL    HW113808   0.346   3.843   5.736
 2987SOL    HW213809   0.359   3.694   5.802
 2988SOL     OW13810   0.935   3.960   6.066
 2988SOL    HW113811   0.887   4.001   5.988
 2988SOL    HW213812   1.034   3.958   6.047
 2989SOL     OW13813   1.076   4.407   7.050
 2989SOL    HW113814   0.996   4.346   7.053
 2989SOL    HW213815   1.157   4.354   7.026
 2990SOL     OW13816   1.227   5.294   6.379
 2990SOL    HW113817   1.248   5.368   6.314
 2990SOL    HW213818   1.295   5.294   6.452
 2991SOL     OW13819   0.459   4.876   6.327
 2991SOL    HW113820   0.388   4.849   6.392
 2991SOL    HW213821   0.433   4.848   6.234
 2992SOL     OW13822   1.271   5.521   6.177
 2992SOL    HW113823   1.315   5.585   6.113
 2992SOL    HW213824   1.221   5.573   6.247
 2993SOL     OW13825   0.078   4.280   6.972
 2993SOL    HW113826   0.170   4.279   6.931
 2993SOL    HW213827   0.072   4.354   7.039
 2994SOL     OW13828   0.561   3.946   6.733
 2994SOL    HW113829   0.599   3.862   6.770
 2994SOL    HW213830   0.473   3.965   6.777
 2995SOL     OW13831   0.866   4.178   6.228
 2995SOL    HW113832   0.834   4.250   6.166
 2995SOL    HW213833   0.890   4.097   6.175
 2996SOL     OW13834   1.017   3.763   6.339
 2996SOL    HW113835   0.945   3.768   6.270
 2996SOL    HW213836   0.993   3.694   6.408
 2997SOL     OW13837   1.429   4.897   6.453
 2997SOL    HW113838   1.374   4.813   6.446
 2997SOL    HW213839   1.455   4.926   6.361
 2998SOL     OW13840   1.466   4.314   6.578
 2998SOL    HW113841   1.436   4.219   6.585
 2998SOL    HW213842   1.539   4.330   6.644
 2999SOL     OW13843   0.488   5.109   5.760
 2999SOL    HW113844   0.401   5.094   5.807
 2999SOL    HW213845   0.471   5.135   5.665
 3000SOL     OW13846   1.664   5.004   6.243
 3000SOL    HW113847   1.763   5.012   6.257
 3000SOL    HW213848   1.619   5.088   6.274
 3001SOL     OW13849   0.527   3.980   5.914
 3001SOL    HW113850   0.554   3.921   5.839
 3001SOL    HW213851   0.527   4.075   5.883
 3002SOL     OW13852   1.754   4.947   7.174
 3002SOL    HW113853   1.845   4.908   7.161
 3002SOL    HW213854   1.762   5.043   7.198
 3003SOL     OW13855   1.064   5.071   6.926
 3003SOL    HW113856   0.984   5.048   6.981
 3003SOL    HW213857   1.147   5.045   6.975
 3004SOL     OW13858   1.592   5.353   7.211
 3004SOL    HW113859   1.619   5.387   7.121
 3004SOL    HW213860   1.671   5.315   7.257
 3005SOL     OW13861   1.111   4.919   6.686
 3005SOL    HW113862   1.071   4.963   6.767
 3005SOL    HW213863   1.070   4.956   6.603
 3006SOL     OW13864   1.638   4.823   6.665
 3006SOL    HW113865   1.643   4.904   6.724
 3006SOL    HW213866   1.552   4.825   6.614
 3007SOL     OW13867   0.915   3.813   6.988
 3007SOL    HW113868   0.940   3.793   6.893
 3007SOL    HW213869   0.987   3.869   7.030
 3008SOL     OW13870   0.980   4.840   7.305
 3008SOL    HW113871   0.881   4.846   7.315
 3008SOL    HW213872   1.003   4.760   7.249
 3009SOL     OW13873   1.274   4.110   6.848
 3009SOL    HW113874   1.295   4.184   6.912
 3009SOL    HW213875   1.185   4.127   6.805
 3010SOL     OW13876   0.064   5.288   6.917
 3010SOL    HW113877   0.018   5.370   6.883
 3010SOL    HW213878   0.162   5.307   6.926
 3011SOL     OW13879   0.566   4.261   6.451
 3011SOL    HW113880   0.578   4.327   6.377
 3011SOL    HW213881   0.612   4.295   6.534
 3012SOL     OW13882   1.252   5.072   5.974
 3012SOL    HW113883   1.302   5.149   6.014
 3012SOL    HW213884   1.157   5.074   6.006
 3013SOL     OW13885   1.272   5.169   6.728
 3013SOL    HW113886   1.319   5.182   6.815
 3013SOL    HW213887   1.206   5.095   6.737
 3014SOL     OW13888   0.354   5.234   6.915
 3014SOL    HW113889   0.333   5.190   6.828
 3014SOL    HW213890   0.451   5.260   6.918
 3015SOL     OW13891   0.402   4.475   7.184
 3015SOL    HW113892   0.470   4.530   7.137
 3015SOL    HW213893   0.442   4.387   7.211
 3016SOL     OW13894   1.587   4.503   7.256
 3016SOL    HW113895   1.495   4.541   7.251
 3016SOL    HW213896   1.647   4.550   7.191
 3017SOL     OW13897   1.013   3.829   7.356
 3017SOL    HW113898   1.019   3.914   7.304
 3017SOL    HW213899   1.045   3.753   7.299
 3018SOL     OW13900   0.504   3.774   7.326
 3018SOL    HW113901   0.462   3.717   7.256
 3018SOL    HW213902   0.438   3.843   7.358
 3019SOL     OW13903   0.573   4.594   6.615
 3019SOL    HW113904   0.617   4.683   6.606
 3019SOL    HW213905   0.510   4.594   6.692
 3020SOL     OW13906   1.360   4.586   6.631
 3020SOL    HW113907   1.285   4.586   6.565
 3020SOL    HW213908   1.397   4.494   6.640
 3021SOL     OW13909   1.209   4.249   5.861
 3021SOL    HW113910   1.222   4.165   5.915
 3021SOL    HW213911   1.180   4.323   5.921
 3022SOL     OW13912   0.307   3.937   6.817
 3022SOL    HW113913   0.284   3.974   6.907
 3022SOL    HW213914   0.277   3.842   6.811
 3023SOL     OW13915   0.037   5.034   6.868
 3023SOL    HW113916   0.090   4.985   6.936
 3023SOL    HW213917   0.059   5.132   6.873
 3024SOL     OW13918   0.732   4.358   6.650
 3024SOL    HW113919   0.791   4.332   6.574
 3024SOL    HW213920   0.704   4.454   6.639
 3025SOL     OW13921   0.307   3.787   6.204
 3025SOL    HW113922   0.296   3.881   6.237
 3025SOL    HW213923   0.302   3.724   6.281
 3026SOL     OW13924   1.622   4.091   5.960
 3026SOL    HW113925   1.624   4.015   6.024
 3026SOL    HW213926   1.574   4.168   6.000
 3027SOL     OW13927   1.023   4.490   6.552
 3027SOL    HW113928   1.038   4.511   6.648
 3027SOL    HW213929   0.993   4.395   6.543
 3028SOL     OW13930   0.980   5.297   7.286
 3028SOL    HW113931   0.960   5.341   7.198
 3028SOL    HW213932   1.019   5.206   7.270
 3029SOL     OW13933   1.859   5.242   7.191
 3029SOL    HW113934   1.873   5.269   7.096
 3029SOL    HW213935   1.942   5.264   7.244
 3030SOL     OW13936   0.350   4.622   7.390
 3030SOL    HW113937   0.426   4.666   7.438
 3030SOL    HW213938   0.385   4.575   7.308
 3031SOL     OW13939   1.540   3.998   5.711
 3031SOL    HW113940   1.479   3.923   5.734
 3031SOL    HW213941   1.562   4.050   5.794
 3032SOL     OW13942   1.303   4.562   5.628
 3032SOL    HW113943   1.337   4.469   5.643
 3032SOL    HW213944   1.321   4.589   5.533
 3033SOL     OW13945   1.068   5.057   6.435
 3033SOL    HW113946   1.075   4.973   6.380
 3033SOL    HW213947   1.130   5.126   6.399
 3034SOL     OW13948   0.319   4.534   6.535
 3034SOL    HW113949   0.412   4.570   6.540
 3034SOL    HW213950   0.313   4.449   6.587
 3035SOL     OW13951   0.339   4.233   6.592
 3035SOL    HW113952   0.287   4.150   6.575
 3035SOL    HW213953   0.416   4.238   6.528
 3036SOL     OW13954   1.138   4.104   7.264
 3036SOL    HW113955   1.093   4.167   7.328
 3036SOL    HW213956   1.231   4.135   7.247
 3037SOL     OW13957   1.160   3.931   7.063
 3037SOL    HW113958   1.160   3.995   7.140
 3037SOL    HW213959   1.188   3.979   6.980
 3038SOL     OW13960   0.008   5.050   5.786
 3038SOL    HW113961  -0.085   5.071   5.755
 3038SOL    HW213962   0.018   4.951   5.799
 3039SOL     OW13963   0.088   5.525   6.513
 3039SOL    HW113964   0.046   5.439   6.486
 3039SOL    HW213965   0.182   5.528   6.479
 3040SOL     OW13966   0.504   5.292   6.496
 3040SOL    HW113967   0.570   5.366   6.505
 3040SOL    HW213968   0.548   5.213   6.454
 3041SOL     OW13969   1.002   4.520   6.824
 3041SOL    HW113970   1.043   4.488   6.910
 3041SOL    HW213971   0.906   4.493   6.821
 3042SOL     OW13972   0.040   4.268   6.700
 3042SOL    HW113973   0.125   4.235   6.659
 3042SOL    HW213974   0.053   4.283   6.798
 3043SOL     OW13975   0.189   4.244   7.308
 3043SOL    HW113976   0.248   4.204   7.238
 3043SOL    HW213977   0.131   4.315   7.267
 3044SOL     OW13978   1.369   4.674   7.246
 3044SOL    HW113979   1.408   4.763   7.266
 3044SOL    HW213980   1.379   4.654   7.149
 3045SOL     OW13981   0.815   4.296   5.911
 3045SOL    HW113982   0.822   4.207   5.865
 3045SOL    HW213983   0.721   4.330   5.903
 3046SOL     OW13984   1.657   4.328   6.792
 3046SOL    HW113985   1.619   4.259   6.854
 3046SOL    HW213986   1.739   4.292   6.748
 3047SOL     OW13987   0.252   5.288   7.330
 3047SOL    HW113988   0.222   5.345   7.406
 3047SOL    HW213989   0.245   5.191   7.356
 3048SOL     OW13990   0.671   4.188   6.855
 3048SOL    HW113991   0.637   4.099   6.825
 3048SOL    HW213992   0.697   4.242   6.775
 3049SOL     OW13993   0.930   5.402   7.051
 3049SOL    HW113994   0.906   5.384   6.956
 3049SOL    HW213995   0.960   5.496   7.061
 3050SOL     OW13996   0.473   4.224   5.777
 3050SOL    HW113997   0.534   4.304   5.781
 3050SOL    HW213998   0.378   4.255   5.784
 3051SOL     OW13999   0.159   4.861   7.052
 3051SOL    HW114000   0.181   4.800   7.128
 3051SOL    HW214001   0.169   4.812   6.966
 3052SOL     OW14002   1.347   4.783   6.820
 3052SOL    HW114003   1.371   4.720   6.746
 3052SOL    HW214004   1.257   4.823   6.802
 3053SOL     OW14005   1.302   4.579   5.895
 3053SOL    HW114006   1.216   4.548   5.937
 3053SOL    HW214007   1.298   4.565   5.796
 3054SOL     OW14008   1.759   5.471   6.740
 3054SOL    HW114009   1.820   5.501   6.667
 3054SOL    HW214010   1.721   5.382   6.718
 3055SOL     OW14011   1.252   5.455   6.714
 3055SOL    HW114012   1.336   5.460   6.660
 3055SOL    HW214013   1.229   5.359   6.732
 3056SOL     OW14014   0.083   4.982   6.608
 3056SOL    HW114015   0.078   4.981   6.708
 3056SOL    HW214016   0.000   4.941   6.570
 3057SOL     OW14017   0.688   5.386   7.302
 3057SOL    HW114018   0.632   5.467   7.311
 3057SOL    HW214019   0.740   5.390   7.216
 3058SOL     OW14020   1.726   3.859   6.109
 3058SOL    HW114021   1.799   3.842   6.042
 3058SOL    HW214022   1.695   3.772   6.147
 3059SOL     OW14023   1.388   5.297   6.063
 3059SOL    HW114024   1.455   5.309   5.989
 3059SOL    HW214025   1.348   5.386   6.086
 3060SOL     OW14026   0.130   5.518   7.437
 3060SOL    HW114027   0.089   5.444   7.490
 3060SOL    HW214028   0.194   5.569   7.495
 3061SOL     OW14029   1.280   4.651   6.258
 3061SOL    HW114030   1.340   4.570   6.260
 3061SOL    HW214031   1.320   4.720   6.198
 3062SOL     OW14032   0.672   5.340   5.740
 3062SOL    HW114033   0.681   5.350   5.641
 3062SOL    HW214034   0.632   5.251   5.761
 3063SOL     OW14035   1.650   5.444   6.980
 3063SOL    HW114036   1.703   5.454   6.896
 3063SOL    HW214037   1.623   5.534   7.014
 3064SOL     OW14038   1.841   3.899   6.549
 3064SOL    HW114039   1.880   3.814   6.513
 3064SOL    HW214040   1.743   3.901   6.530
 3065SOL     OW14041   0.263   4.050   6.306
 3065SOL    HW114042   0.184   4.101   6.272
 3065SOL    HW214043   0.254   4.035   6.404
 3066SOL     OW14044   1.194   5.336   5.617
 3066SOL    HW114045   1.200   5.243   5.654
 3066SOL    HW214046   1.135   5.336   5.537
 3067SOL     OW14047   0.916   4.634   5.877
 3067SOL    HW114048   0.979   4.672   5.809
 3067SOL    HW214049   0.956   4.551   5.916
 3068SOL     OW14050   1.504   5.331   5.630
 3068SOL    HW114051   1.412   5.368   5.637
 3068SOL    HW214052   1.542   5.351   5.540
 3069SOL     OW14053   0.372   5.012   7.076
 3069SOL    HW114054   0.359   5.105   7.042
 3069SOL    HW214055   0.288   4.960   7.063
 3070SOL     OW14056   1.614   5.016   6.875
 3070SOL    HW114057   1.674   5.019   6.955
 3070SOL    HW214058   1.539   5.080   6.888
 3071SOL     OW14059   1.039   4.822   6.282
 3071SOL    HW114060   0.969   4.775   6.336
 3071SOL    HW214061   1.098   4.754   6.239
 3072SOL     OW14062   1.014   3.960   6.557
 3072SOL    HW114063   1.006   3.924   6.464
 3072SOL    HW214064   1.012   3.884   6.622
 3073SOL     OW14065   0.590   5.211   6.077
 3073SOL    HW114066   0.632   5.153   6.007
 3073SOL    HW214067   0.546   5.290   6.033
 3074SOL     OW14068   1.709   4.109   6.967
 3074SOL    HW114069   1.782   4.178   6.971
 3074SOL    HW214070   1.737   4.034   6.908
 3075SOL     OW14071   0.255   5.072   5.876
 3075SOL    HW114072   0.159   5.073   5.849
 3075SOL    HW214073   0.267   5.125   5.960
 3076SOL     OW14074   0.105   4.737   7.312
 3076SOL    HW114075   0.028   4.704   7.366
 3076SOL    HW214076   0.190   4.707   7.354
 3077SOL     OW14077   0.672   3.927   7.075
 3077SOL    HW114078   0.762   3.911   7.035
 3077SOL    HW214079   0.680   3.932   7.174
 3078SOL     OW14080   0.075   4.069   5.619
 3078SOL    HW114081  -0.017   4.041   5.590
 3078SOL    HW214082   0.106   4.146   5.563
 3079SOL     OW14083   1.440   4.580   6.984
 3079SOL    HW114084   1.383   4.632   6.921
 3079SOL    HW214085   1.536   4.592   6.960
 3080SOL     OW14086   0.072   3.890   5.904
 3080SOL    HW114087   0.055   3.973   5.850
 3080SOL    HW214088   0.162   3.853   5.882
 3081SOL     OW14089   1.183   5.059   5.705
 3081SOL    HW114090   1.084   5.048   5.707
 3081SOL    HW214091   1.217   5.074   5.798
 3082SOL     OW14092   1.493   5.491   6.545
 3082SOL    HW114093   1.526   5.555   6.476
 3082SOL    HW214094   1.559   5.485   6.620
 3083SOL     OW14095   0.716   4.289   7.294
 3083SOL    HW114096   0.735   4.354   7.368
 3083SOL    HW214097   0.776   4.209   7.303
 3084SOL     OW14098   1.450   4.944   7.219
 3084SOL    HW114099   1.441   4.934   7.318
 3084SOL    HW214100   1.546   4.937   7.193
 3085SOL     OW14101   0.390   5.465   7.146
 3085SOL    HW114102   0.299   5.506   7.144
 3085SOL    HW214103   0.383   5.371   7.178
 3086SOL     OW14104   1.674   4.607   6.840
 3086SOL    HW114105   1.647   4.518   6.803
 3086SOL    HW214106   1.675   4.675   6.767
 3087SOL     OW14107   1.225   4.049   6.035
 3087SOL    HW114108   1.290   3.975   6.024
 3087SOL    HW214109   1.245   4.099   6.119
 3088SOL     OW14110   1.777   4.066   7.228
 3088SOL    HW114111   1.760   4.097   7.134
 3088SOL    HW214112   1.693   4.029   7.266
 3089SOL     OW14113   1.730   4.658   7.103
 3089SOL    HW114114   1.768   4.749   7.118
 3089SOL    HW214115   1.722   4.641   7.004
 3090SOL     OW14116   0.859   5.098   5.602
 3090SOL    HW114117   0.813   5.113   5.690
 3090SOL    HW214118   0.903   5.183   5.572
 3091SOL     OW14119   0.661   5.514   6.539
 3091SOL    HW114120   0.615   5.602   6.526
 3091SOL    HW214121   0.760   5.526   6.532
 3092SOL     OW14122   0.859   4.680   6.447
 3092SOL    HW114123   0.913   4.611   6.495
 3092SOL    HW214124   0.827   4.749   6.513
 3093SOL     OW14125   1.861   5.293   6.437
 3093SOL    HW114126   1.790   5.281   6.367
 3093SOL    HW214127   1.862   5.214   6.497
 3094SOL     OW14128   0.221   5.038   7.430
 3094SOL    HW114129   0.156   4.965   7.409
 3094SOL    HW214130   0.225   5.052   7.528
 3095SOL     OW14131   0.079   4.964   6.239
 3095SOL    HW114132   0.078   4.917   6.327
 3095SOL    HW214133   0.161   4.936   6.188
 3096SOL     OW14134   0.672   5.115   7.210
 3096SOL    HW114135   0.594   5.065   7.248
 3096SOL    HW214136   0.669   5.210   7.241
 3097SOL     OW14137   1.824   3.916   6.813
 3097SOL    HW114138   1.820   3.826   6.857
 3097SOL    HW214139   1.827   3.905   6.714
 3098SOL     OW14140   0.428   4.148   6.106
 3098SOL    HW114141   0.458   4.076   6.044
 3098SOL    HW214142   0.389   4.108   6.189
 3099SOL     OW14143   1.705   5.211   6.690
 3099SOL    HW114144   1.612   5.186   6.663
 3099SOL    HW214145   1.731   5.161   6.772
 3100SOL     OW14146   0.317   4.271   6.866
 3100SOL    HW114147   0.355   4.212   6.938
 3100SOL    HW214148   0.357   4.245   6.778
 3101SOL     OW14149   0.812   5.310   6.273
 3101SOL    HW114150   0.844   5.320   6.179
 3101SOL    HW214151   0.733   5.248   6.275
 3102SOL     OW14152   1.424   3.938   6.698
 3102SOL    HW114153   1.476   3.873   6.753
 3102SOL    HW214154   1.375   4.001   6.759
 3103SOL     OW14155   1.001   3.758   6.740
 3103SOL    HW114156   0.938   3.686   6.709
 3103SOL    HW214157   1.094   3.722   6.740
 3104SOL     OW14158   0.770   5.054   5.887
 3104SOL    HW114159   0.724   4.967   5.904
 3104SOL    HW214160   0.861   5.051   5.928
 3105SOL     OW14161   0.618   5.291   6.870
 3105SOL    HW114162   0.613   5.373   6.927
 3105SOL    HW214163   0.707   5.288   6.825
 3106SOL     OW14164   1.300   4.177   6.277
 3106SOL    HW114165   1.241   4.257   6.281
 3106SOL    HW214166   1.315   4.142   6.370
 3107SOL     OW14167   1.593   3.945   6.468
 3107SOL    HW114168   1.509   3.944   6.522
 3107SOL    HW214169   1.595   4.028   6.412
 3108SOL     OW14170   0.039   4.801   5.886
 3108SOL    HW114171   0.138   4.790   5.877
 3108SOL    HW214172  -0.001   4.715   5.918
 3109SOL     OW14173   0.875   5.370   5.923
 3109SOL    HW114174   0.798   5.335   5.869
 3109SOL    HW214175   0.843   5.441   5.985
 3110SOL     OW14176   0.230   4.352   7.561
 3110SOL    HW114177   0.137   4.350   7.598
 3110SOL    HW214178   0.231   4.313   7.469
 3111SOL     OW14179   0.225   3.999   8.444
 3111SOL    HW114180   0.260   3.982   8.536
 3111SOL    HW214181   0.137   3.954   8.432
 3112SOL     OW14182   0.019   4.092   8.095
 3112SOL    HW114183  -0.063   4.135   8.134
 3112SOL    HW214184  -0.009   4.019   8.032
 3113SOL     OW14185   0.569   4.999   8.613
 3113SOL    HW114186   0.476   4.992   8.576
 3113SOL    HW214187   0.580   5.088   8.657
 3114SOL     OW14188   1.555   5.235   8.151
 3114SOL    HW114189   1.498   5.219   8.232
 3114SOL    HW214190   1.496   5.245   8.071
 3115SOL     OW14191   1.135   4.427   8.165
 3115SOL    HW114192   1.192   4.505   8.140
 3115SOL    HW214193   1.075   4.453   8.241
 3116SOL     OW14194   1.755   4.331   7.679
 3116SOL    HW114195   1.743   4.318   7.580
 3116SOL    HW214196   1.725   4.250   7.728
 3117SOL     OW14197   0.768   4.868   8.471
 3117SOL    HW114198   0.690   4.885   8.531
 3117SOL    HW214199   0.802   4.955   8.435
 3118SOL     OW14200   0.850   4.522   9.271
 3118SOL    HW114201   0.846   4.598   9.336
 3118SOL    HW214202   0.872   4.558   9.180
 3119SOL     OW14203   0.685   4.736   8.113
 3119SOL    HW114204   0.754   4.720   8.183
 3119SOL    HW214205   0.612   4.793   8.151
 3120SOL     OW14206   0.686   4.885   9.251
 3120SOL    HW114207   0.746   4.964   9.265
 3120SOL    HW214208   0.600   4.916   9.210
 3121SOL     OW14209   0.335   5.159   8.509
 3121SOL    HW114210   0.257   5.128   8.456
 3121SOL    HW214211   0.393   5.217   8.452
 3122SOL     OW14212   1.460   5.229   8.787
 3122SOL    HW114213   1.484   5.323   8.813
 3122SOL    HW214214   1.444   5.175   8.869
 3123SOL     OW14215   0.438   4.116   8.947
 3123SOL    HW114216   0.520   4.060   8.956
 3123SOL    HW214217   0.357   4.058   8.951
 3124SOL     OW14218   1.603   4.171   8.185
 3124SOL    HW114219   1.529   4.217   8.135
 3124SOL    HW214220   1.654   4.239   8.238
 3125SOL     OW14221   1.127   5.065   9.138
 3125SOL    HW114222   1.174   5.065   9.226
 3125SOL    HW214223   1.079   4.978   9.127
 3126SOL     OW14224   0.240   4.815   8.334
 3126SOL    HW114225   0.254   4.731   8.386
 3126SOL    HW214226   0.185   4.879   8.389
 3127SOL     OW14227   0.620   5.510   8.887
 3127SOL    HW114228   0.528   5.493   8.922
 3127SOL    HW214229   0.648   5.602   8.913
 3128SOL     OW14230   0.606   4.688   7.571
 3128SOL    HW114231   0.613   4.772   7.517
 3128SOL    HW214232   0.652   4.701   7.659
 3129SOL     OW14233   1.594   3.838   8.928
 3129SOL    HW114234   1.576   3.905   8.856
 3129SOL    HW214235   1.591   3.884   9.017
 3130SOL     OW14236   0.122   4.367   8.011
 3130SOL    HW114237   0.077   4.279   8.028
 3130SOL    HW214238   0.121   4.421   8.095
 3131SOL     OW14239   1.842   5.491   7.807
 3131SOL    HW114240   1.896   5.462   7.887
 3131SOL    HW214241   1.872   5.581   7.778
 3132SOL     OW14242   1.689   4.646   8.060
 3132SOL    HW114243   1.784   4.617   8.068
 3132SOL    HW214244   1.681   4.711   7.985
 3133SOL     OW14245   1.641   4.832   7.880
 3133SOL    HW114246   1.727   4.834   7.828
 3133SOL    HW214247   1.655   4.879   7.968
 3134SOL     OW14248   0.113   4.461   9.045
 3134SOL    HW114249   0.201   4.448   9.090
 3134SOL    HW214250   0.100   4.558   9.023
 3135SOL     OW14251   0.613   5.089   8.174
 3135SOL    HW114252   0.564   5.002   8.183
 3135SOL    HW214253   0.590   5.132   8.087
 3136SOL     OW14254   1.293   4.952   8.871
 3136SOL    HW114255   1.330   4.879   8.813
 3136SOL    HW214256   1.345   4.957   8.956
 3137SOL     OW14257   0.809   3.728   7.950
 3137SOL    HW114258   0.849   3.819   7.941
 3137SOL    HW214259   0.709   3.736   7.956
 3138SOL     OW14260   0.197   4.700   8.712
 3138SOL    HW114261   0.286   4.655   8.698
 3138SOL    HW214262   0.124   4.635   8.693
 3139SOL     OW14263   1.187   5.516   9.064
 3139SOL    HW114264   1.211   5.576   8.988
 3139SOL    HW214265   1.194   5.421   9.034
 3140SOL     OW14266   1.466   5.141   8.401
 3140SOL    HW114267   1.407   5.147   8.481
 3140SOL    HW214268   1.451   5.053   8.355
 3141SOL     OW14269   1.667   5.438   8.020
 3141SOL    HW114270   1.626   5.415   7.932
 3141SOL    HW214271   1.649   5.364   8.085
 3142SOL     OW14272   0.598   4.453   7.718
 3142SOL    HW114273   0.622   4.522   7.650
 3142SOL    HW214274   0.520   4.486   7.772
 3143SOL     OW14275   1.281   4.069   8.392
 3143SOL    HW114276   1.195   4.019   8.379
 3143SOL    HW214277   1.343   4.015   8.448
 3144SOL     OW14278   1.576   5.386   7.755
 3144SOL    HW114279   1.665   5.432   7.758
 3144SOL    HW214280   1.555   5.362   7.660
 3145SOL     OW14281   0.807   4.329   8.913
 3145SOL    HW114282   0.760   4.326   9.002
 3145SOL    HW214283   0.756   4.274   8.847
 3146SOL     OW14284   1.394   4.193   9.122
 3146SOL    HW114285   1.374   4.236   9.210
 3146SOL    HW214286   1.472   4.131   9.131
 3147SOL     OW14287   0.973   4.614   9.020
 3147SOL    HW114288   1.019   4.530   8.991
 3147SOL    HW214289   0.917   4.648   8.945
 3148SOL     OW14290   0.991   4.134   8.690
 3148SOL    HW114291   0.914   4.168   8.744
 3148SOL    HW214292   0.957   4.083   8.611
 3149SOL     OW14293   1.041   4.425   7.877
 3149SOL    HW114294   1.067   4.421   7.973
 3149SOL    HW214295   0.956   4.374   7.863
 3150SOL     OW14296   0.076   4.535   8.237
 3150SOL    HW114297   0.175   4.523   8.246
 3150SOL    HW214298   0.052   4.630   8.258
 3151SOL     OW14299   0.130   5.545   9.019
 3151SOL    HW114300   0.120   5.530   9.118
 3151SOL    HW214301   0.044   5.581   8.983
 3152SOL     OW14302   0.865   4.072   7.643
 3152SOL    HW114303   0.924   4.135   7.594
 3152SOL    HW214304   0.884   3.978   7.614
 3153SOL     OW14305   1.719   4.309   9.279
 3153SOL    HW114306   1.693   4.398   9.243
 3153SOL    HW214307   1.717   4.241   9.206
 3154SOL     OW14308   1.362   4.868   7.993
 3154SOL    HW114309   1.445   4.839   7.945
 3154SOL    HW214310   1.313   4.935   7.937
 3155SOL     OW14311   0.550   3.920   8.333
 3155SOL    HW114312   0.545   3.915   8.433
 3155SOL    HW214313   0.552   4.016   8.304
 3156SOL     OW14314   1.008   5.180   7.925
 3156SOL    HW114315   0.962   5.252   7.873
 3156SOL    HW214316   1.004   5.200   8.023
 3157SOL     OW14317   0.351   5.525   8.301
 3157SOL    HW114318   0.401   5.439   8.307
 3157SOL    HW214319   0.416   5.602   8.298
 3158SOL     OW14320   1.795   4.790   8.321
 3158SOL    HW114321   1.733   4.775   8.245
 3158SOL    HW214322   1.743   4.801   8.406
 3159SOL     OW14323   1.227   5.274   8.954
 3159SOL    HW114324   1.233   5.197   9.018
 3159SOL    HW214325   1.175   5.248   8.874
 3160SOL     OW14326   0.321   4.667   7.690
 3160SOL    HW114327   0.403   4.706   7.648
 3160SOL    HW214328   0.294   4.585   7.641
 3161SOL     OW14329   1.458   4.459   8.176
 3161SOL    HW114330   1.453   4.394   8.251
 3161SOL    HW214331   1.538   4.518   8.189
 3162SOL     OW14332   0.461   4.990   9.175
 3162SOL    HW114333   0.411   4.991   9.089
 3162SOL    HW214334   0.398   4.972   9.251
 3163SOL     OW14335   1.111   5.500   7.685
 3163SOL    HW114336   1.051   5.438   7.735
 3163SOL    HW214337   1.142   5.456   7.600
 3164SOL     OW14338   0.464   5.467   7.771
 3164SOL    HW114339   0.497   5.506   7.857
 3164SOL    HW214340   0.540   5.460   7.706
 3165SOL     OW14341   1.400   3.831   7.874
 3165SOL    HW114342   1.376   3.794   7.784
 3165SOL    HW214343   1.499   3.847   7.878
 3166SOL     OW14344   0.249   5.509   8.689
 3166SOL    HW114345   0.306   5.444   8.739
 3166SOL    HW214346   0.233   5.476   8.596
 3167SOL     OW14347   0.940   5.422   8.352
 3167SOL    HW114348   1.020   5.365   8.373
 3167SOL    HW214349   0.891   5.382   8.275
 3168SOL     OW14350   0.382   4.424   7.928
 3168SOL    HW114351   0.427   4.334   7.925
 3168SOL    HW214352   0.288   4.413   7.961
 3169SOL     OW14353   1.547   3.946   9.177
 3169SOL    HW114354   1.542   3.983   9.269
 3169SOL    HW214355   1.475   3.877   9.165
 3170SOL     OW14356   0.614   3.846   7.565
 3170SOL    HW114357   0.712   3.824   7.572
 3170SOL    HW214358   0.583   3.829   7.472
 3171SOL     OW14359   0.781   3.988   9.197
 3171SOL    HW114360   0.848   3.927   9.240
 3171SOL    HW214361   0.708   4.007   9.262
 3172SOL     OW14362   0.888   5.238   8.643
 3172SOL    HW114363   0.865   5.213   8.549
 3172SOL    HW214364   0.949   5.169   8.682
 3173SOL     OW14365   1.351   4.314   8.881
 3173SOL    HW114366   1.379   4.271   8.966
 3173SOL    HW214367   1.376   4.410   8.882
 3174SOL     OW14368   0.803   5.126   8.372
 3174SOL    HW114369   0.893   5.140   8.330
 3174SOL    HW214370   0.732   5.128   8.301
 3175SOL     OW14371   0.922   4.227   8.347
 3175SOL    HW114372   0.897   4.218   8.251
 3175SOL    HW214373   0.970   4.145   8.378
 3176SOL     OW14374   1.434   4.912   7.489
 3176SOL    HW114375   1.466   4.836   7.546
 3176SOL    HW214376   1.342   4.939   7.519
 3177SOL     OW14377   0.297   3.759   7.619
 3177SOL    HW114378   0.346   3.843   7.598
 3177SOL    HW214379   0.359   3.694   7.664
 3178SOL     OW14380   0.935   3.960   7.928
 3178SOL    HW114381   0.887   4.001   7.850
 3178SOL    HW214382   1.034   3.958   7.909
 3179SOL     OW14383   1.076   4.407   8.912
 3179SOL    HW114384   0.996   4.346   8.915
 3179SOL    HW214385   1.157   4.354   8.888
 3180SOL     OW14386   1.227   5.294   8.241
 3180SOL    HW114387   1.248   5.368   8.176
 3180SOL    HW214388   1.295   5.294   8.314
 3181SOL     OW14389   0.459   4.876   8.189
 3181SOL    HW114390   0.388   4.849   8.254
 3181SOL    HW214391   0.433   4.848   8.096
 3182SOL     OW14392   1.271   5.521   8.039
 3182SOL    HW114393   1.315   5.585   7.975
 3182SOL    HW214394   1.221   5.573   8.109
 3183SOL     OW14395   1.032   4.273   7.464
 3183SOL    HW114396   0.991   4.355   7.425
 3183SOL    HW214397   1.096   4.299   7.537
 3184SOL     OW14398   0.078   4.280   8.834
 3184SOL    HW114399   0.170   4.279   8.793
 3184SOL    HW214400   0.072   4.354   8.901
 3185SOL     OW14401   0.561   3.946   8.595
 3185SOL    HW114402   0.599   3.862   8.632
 3185SOL    HW214403   0.473   3.965   8.639
 3186SOL     OW14404   0.866   4.178   8.090
 3186SOL    HW114405   0.834   4.250   8.028
 3186SOL    HW214406   0.890   4.097   8.037
 3187SOL     OW14407   1.017   3.763   8.201
 3187SOL    HW114408   0.945   3.768   8.132
 3187SOL    HW214409   0.993   3.694   8.270
 3188SOL     OW14410   1.429   4.897   8.315
 3188SOL    HW114411   1.374   4.813   8.308
 3188SOL    HW214412   1.455   4.926   8.223
 3189SOL     OW14413   1.466   4.314   8.440
 3189SOL    HW114414   1.436   4.219   8.447
 3189SOL    HW214415   1.539   4.330   8.506
 3190SOL     OW14416   1.857   4.557   7.825
 3190SOL    HW114417   1.899   4.493   7.889
 3190SOL    HW214418   1.819   4.506   7.747
 3191SOL     OW14419   0.488   5.109   7.622
 3191SOL    HW114420   0.401   5.094   7.669
 3191SOL    HW214421   0.471   5.135   7.527
 3192SOL     OW14422   1.664   5.004   8.105
 3192SOL    HW114423   1.763   5.012   8.119
 3192SOL    HW214424   1.619   5.088   8.136
 3193SOL     OW14425   1.390   4.299   7.526
 3193SOL    HW114426   1.336   4.278   7.607
 3193SOL    HW214427   1.481   4.258   7.535
 3194SOL     OW14428   1.754   4.947   9.036
 3194SOL    HW114429   1.845   4.908   9.023
 3194SOL    HW214430   1.762   5.043   9.060
 3195SOL     OW14431   1.064   5.071   8.788
 3195SOL    HW114432   0.984   5.048   8.843
 3195SOL    HW214433   1.147   5.045   8.837
 3196SOL     OW14434   1.592   5.353   9.073
 3196SOL    HW114435   1.619   5.387   8.983
 3196SOL    HW214436   1.671   5.315   9.119
 3197SOL     OW14437   1.111   4.919   8.548
 3197SOL    HW114438   1.071   4.963   8.629
 3197SOL    HW214439   1.070   4.956   8.465
 3198SOL     OW14440   1.638   4.823   8.527
 3198SOL    HW114441   1.643   4.904   8.586
 3198SOL    HW214442   1.552   4.825   8.476
 3199SOL     OW14443   0.915   3.813   8.850
 3199SOL    HW114444   0.940   3.793   8.755
 3199SOL    HW214445   0.987   3.869   8.892
 3200SOL     OW14446   0.980   4.840   9.167
 3200SOL    HW114447   0.881   4.846   9.177
 3200SOL    HW214448   1.003   4.760   9.111
 3201SOL     OW14449   0.705   4.774   7.816
 3201SOL    HW114450   0.691   4.781   7.915
 3201SOL    HW214451   0.789   4.723   7.798
 3202SOL     OW14452   1.274   4.110   8.710
 3202SOL    HW114453   1.295   4.184   8.774
 3202SOL    HW214454   1.185   4.127   8.667
 3203SOL     OW14455   0.064   5.288   8.779
 3203SOL    HW114456   0.018   5.370   8.745
 3203SOL    HW214457   0.162   5.307   8.788
 3204SOL     OW14458   0.367   4.824   7.949
 3204SOL    HW114459   0.360   4.907   7.893
 3204SOL    HW214460   0.371   4.744   7.889
 3205SOL     OW14461   0.566   4.261   8.313
 3205SOL    HW114462   0.578   4.327   8.239
 3205SOL    HW214463   0.612   4.295   8.396
 3206SOL     OW14464   1.252   5.072   7.836
 3206SOL    HW114465   1.302   5.149   7.876
 3206SOL    HW214466   1.157   5.074   7.868
 3207SOL     OW14467   1.272   5.169   8.590
 3207SOL    HW114468   1.319   5.182   8.677
 3207SOL    HW214469   1.206   5.095   8.599
 3208SOL     OW14470   1.582   4.363   7.920
 3208SOL    HW114471   1.551   4.424   7.993
 3208SOL    HW214472   1.632   4.415   7.851
 3209SOL     OW14473   0.354   5.234   8.777
 3209SOL    HW114474   0.333   5.190   8.690
 3209SOL    HW214475   0.451   5.260   8.780
 3210SOL     OW14476   0.402   4.475   9.046
 3210SOL    HW114477   0.470   4.530   8.999
 3210SOL    HW214478   0.442   4.387   9.073
 3211SOL     OW14479   1.587   4.503   9.118
 3211SOL    HW114480   1.495   4.541   9.113
 3211SOL    HW214481   1.647   4.550   9.053
 3212SOL     OW14482   1.013   3.829   9.218
 3212SOL    HW114483   1.019   3.914   9.166
 3212SOL    HW214484   1.045   3.753   9.161
 3213SOL     OW14485   0.573   4.594   8.477
 3213SOL    HW114486   0.617   4.683   8.468
 3213SOL    HW214487   0.510   4.594   8.554
 3214SOL     OW14488   1.360   4.586   8.493
 3214SOL    HW114489   1.285   4.586   8.427
 3214SOL    HW214490   1.397   4.494   8.502
 3215SOL     OW14491   1.209   4.249   7.723
 3215SOL    HW114492   1.222   4.165   7.777
 3215SOL    HW214493   1.180   4.323   7.783
 3216SOL     OW14494   0.307   3.937   8.679
 3216SOL    HW114495   0.284   3.974   8.769
 3216SOL    HW214496   0.277   3.842   8.673
 3217SOL     OW14497   0.037   5.034   8.730
 3217SOL    HW114498   0.090   4.985   8.798
 3217SOL    HW214499   0.059   5.132   8.735
 3218SOL     OW14500   0.732   4.358   8.512
 3218SOL    HW114501   0.791   4.332   8.436
 3218SOL    HW214502   0.704   4.454   8.501
 3219SOL     OW14503   1.728   4.659   9.302
 3219SOL    HW114504   1.682   4.652   9.213
 3219SOL    HW214505   1.666   4.703   9.368
 3220SOL     OW14506   1.622   4.091   7.822
 3220SOL    HW114507   1.624   4.015   7.886
 3220SOL    HW214508   1.574   4.168   7.862
 3221SOL     OW14509   1.023   4.490   8.414
 3221SOL    HW114510   1.038   4.511   8.510
 3221SOL    HW214511   0.993   4.395   8.405
 3222SOL     OW14512   0.980   5.297   9.148
 3222SOL    HW114513   0.960   5.341   9.060
 3222SOL    HW214514   1.019   5.206   9.132
 3223SOL     OW14515   1.859   5.242   9.053
 3223SOL    HW114516   1.873   5.269   8.958
 3223SOL    HW214517   1.942   5.264   9.106
 3224SOL     OW14518   0.350   4.622   9.252
 3224SOL    HW114519   0.426   4.666   9.300
 3224SOL    HW214520   0.385   4.575   9.170
 3225SOL     OW14521   1.540   3.998   7.573
 3225SOL    HW114522   1.479   3.923   7.596
 3225SOL    HW214523   1.562   4.050   7.656
 3226SOL     OW14524   1.303   4.562   7.490
 3226SOL    HW114525   1.337   4.469   7.505
 3226SOL    HW214526   1.321   4.589   7.395
 3227SOL     OW14527   1.068   5.057   8.297
 3227SOL    HW114528   1.075   4.973   8.242
 3227SOL    HW214529   1.130   5.126   8.261
 3228SOL     OW14530   0.319   4.534   8.397
 3228SOL    HW114531   0.412   4.570   8.402
 3228SOL    HW214532   0.313   4.449   8.449
 3229SOL     OW14533   0.339   4.233   8.454
 3229SOL    HW114534   0.287   4.150   8.437
 3229SOL    HW214535   0.416   4.238   8.390
 3230SOL     OW14536   1.138   4.104   9.126
 3230SOL    HW114537   1.093   4.167   9.190
 3230SOL    HW214538   1.231   4.135   9.109
 3231SOL     OW14539   1.160   3.931   8.925
 3231SOL    HW114540   1.160   3.995   9.002
 3231SOL    HW214541   1.188   3.979   8.842
 3232SOL     OW14542   0.008   5.050   7.648
 3232SOL    HW114543  -0.085   5.071   7.617
 3232SOL    HW214544   0.018   4.951   7.661
 3233SOL     OW14545   0.088   5.525   8.375
 3233SOL    HW114546   0.046   5.439   8.348
 3233SOL    HW214547   0.182   5.528   8.341
 3234SOL     OW14548   0.504   5.292   8.358
 3234SOL    HW114549   0.570   5.366   8.367
 3234SOL    HW214550   0.548   5.213   8.316
 3235SOL     OW14551   1.002   4.520   8.686
 3235SOL    HW114552   1.043   4.488   8.772
 3235SOL    HW214553   0.906   4.493   8.683
 3236SOL     OW14554   0.040   4.268   8.562
 3236SOL    HW114555   0.125   4.235   8.521
 3236SOL    HW214556   0.053   4.283   8.660
 3237SOL     OW14557   0.189   4.244   9.170
 3237SOL    HW114558   0.248   4.204   9.100
 3237SOL    HW214559   0.131   4.315   9.129
 3238SOL     OW14560   1.369   4.674   9.108
 3238SOL    HW114561   1.408   4.763   9.128
 3238SOL    HW214562   1.379   4.654   9.011
 3239SOL     OW14563   0.815   4.296   7.773
 3239SOL    HW114564   0.822   4.207   7.727
 3239SOL    HW214565   0.721   4.330   7.765
 3240SOL     OW14566   1.657   4.328   8.654
 3240SOL    HW114567   1.619   4.259   8.716
 3240SOL    HW214568   1.739   4.292   8.610
 3241SOL     OW14569   0.252   5.288   9.192
 3241SOL    HW114570   0.222   5.345   9.268
 3241SOL    HW214571   0.245   5.191   9.218
 3242SOL     OW14572   0.671   4.188   8.717
 3242SOL    HW114573   0.637   4.099   8.687
 3242SOL    HW214574   0.697   4.242   8.637
 3243SOL     OW14575   0.930   5.402   8.913
 3243SOL    HW114576   0.906   5.384   8.818
 3243SOL    HW214577   0.960   5.496   8.923
 3244SOL     OW14578   0.473   4.224   7.639
 3244SOL    HW114579   0.534   4.304   7.643
 3244SOL    HW214580   0.378   4.255   7.646
 3245SOL     OW14581   0.159   4.861   8.914
 3245SOL    HW114582   0.181   4.800   8.990
 3245SOL    HW214583   0.169   4.812   8.828
 3246SOL     OW14584   1.347   4.783   8.682
 3246SOL    HW114585   1.371   4.720   8.608
 3246SOL    HW214586   1.257   4.823   8.664
 3247SOL     OW14587   1.302   4.579   7.757
 3247SOL    HW114588   1.216   4.548   7.799
 3247SOL    HW214589   1.298   4.565   7.658
 3248SOL     OW14590   1.759   5.471   8.602
 3248SOL    HW114591   1.820   5.501   8.529
 3248SOL    HW214592   1.721   5.382   8.580
 3249SOL     OW14593   1.252   5.455   8.576
 3249SOL    HW114594   1.336   5.460   8.522
 3249SOL    HW214595   1.229   5.359   8.594
 3250SOL     OW14596   0.083   4.982   8.470
 3250SOL    HW114597   0.078   4.981   8.570
 3250SOL    HW214598   0.000   4.941   8.432
 3251SOL     OW14599   0.688   5.386   9.164
 3251SOL    HW114600   0.632   5.467   9.173
 3251SOL    HW214601   0.740   5.390   9.078
 3252SOL     OW14602   1.726   3.859   7.971
 3252SOL    HW114603   1.799   3.842   7.904
 3252SOL    HW214604   1.695   3.772   8.009
 3253SOL     OW14605   1.388   5.297   7.925
 3253SOL    HW114606   1.455   5.309   7.851
 3253SOL    HW214607   1.348   5.386   7.948
 3254SOL     OW14608   0.130   5.518   9.299
 3254SOL    HW114609   0.089   5.444   9.352
 3254SOL    HW214610   0.194   5.569   9.357
 3255SOL     OW14611   1.280   4.651   8.120
 3255SOL    HW114612   1.340   4.570   8.122
 3255SOL    HW214613   1.320   4.720   8.060
 3256SOL     OW14614   0.830   4.997   8.870
 3256SOL    HW114615   0.825   5.030   8.965
 3256SOL    HW214616   0.744   5.016   8.824
 3257SOL     OW14617   0.672   5.340   7.602
 3257SOL    HW114618   0.681   5.350   7.503
 3257SOL    HW214619   0.632   5.251   7.623
 3258SOL     OW14620   1.650   5.444   8.842
 3258SOL    HW114621   1.703   5.454   8.758
 3258SOL    HW214622   1.623   5.534   8.876
 3259SOL     OW14623   1.841   3.899   8.411
 3259SOL    HW114624   1.880   3.814   8.375
 3259SOL    HW214625   1.743   3.901   8.392
 3260SOL     OW14626   0.263   4.050   8.168
 3260SOL    HW114627   0.184   4.101   8.134
 3260SOL    HW214628   0.254   4.035   8.266
 3261SOL     OW14629   1.194   5.336   7.479
 3261SOL    HW114630   1.200   5.243   7.516
 3261SOL    HW214631   1.135   5.336   7.399
 3262SOL     OW14632   0.822   4.726   8.820
 3262SOL    HW114633   0.862   4.725   8.728
 3262SOL    HW214634   0.832   4.818   8.860
 3263SOL     OW14635   0.916   4.634   7.739
 3263SOL    HW114636   0.979   4.672   7.671
 3263SOL    HW214637   0.956   4.551   7.778
 3264SOL     OW14638   1.504   5.331   7.492
 3264SOL    HW114639   1.412   5.368   7.499
 3264SOL    HW214640   1.542   5.351   7.402
 3265SOL     OW14641   0.372   5.012   8.938
 3265SOL    HW114642   0.359   5.105   8.904
 3265SOL    HW214643   0.288   4.960   8.925
 3266SOL     OW14644   1.614   5.016   8.737
 3266SOL    HW114645   1.674   5.019   8.817
 3266SOL    HW214646   1.539   5.080   8.750
 3267SOL     OW14647   1.039   4.822   8.144
 3267SOL    HW114648   0.969   4.775   8.198
 3267SOL    HW214649   1.098   4.754   8.101
 3268SOL     OW14650   1.014   3.960   8.419
 3268SOL    HW114651   1.006   3.924   8.326
 3268SOL    HW214652   1.012   3.884   8.484
 3269SOL     OW14653   0.590   5.211   7.939
 3269SOL    HW114654   0.632   5.153   7.869
 3269SOL    HW214655   0.546   5.290   7.895
 3270SOL     OW14656   1.709   4.109   8.829
 3270SOL    HW114657   1.782   4.178   8.833
 3270SOL    HW214658   1.737   4.034   8.770
 3271SOL     OW14659   0.105   4.737   9.174
 3271SOL    HW114660   0.028   4.704   9.228
 3271SOL    HW214661   0.190   4.707   9.216
 3272SOL     OW14662   0.672   3.927   8.937
 3272SOL    HW114663   0.762   3.911   8.897
 3272SOL    HW214664   0.680   3.932   9.036
 3273SOL     OW14665   0.075   4.069   7.481
 3273SOL    HW114666  -0.017   4.041   7.452
 3273SOL    HW214667   0.106   4.146   7.425
 3274SOL     OW14668   1.440   4.580   8.846
 3274SOL    HW114669   1.383   4.632   8.783
 3274SOL    HW214670   1.536   4.592   8.822
 3275SOL     OW14671   0.072   3.890   7.766
 3275SOL    HW114672   0.055   3.973   7.712
 3275SOL    HW214673   0.162   3.853   7.744
 3276SOL     OW14674   1.183   5.059   7.567
 3276SOL    HW114675   1.084   5.048   7.569
 3276SOL    HW214676   1.217   5.074   7.660
 3277SOL     OW14677   0.613   4.566   8.879
 3277SOL    HW114678   0.669   4.647   8.862
 3277SOL    HW214679   0.672   4.486   8.882
 3278SOL     OW14680   1.493   5.491   8.407
 3278SOL    HW114681   1.526   5.555   8.338
 3278SOL    HW214682   1.559   5.485   8.482
 3279SOL     OW14683   1.450   4.944   9.081
 3279SOL    HW114684   1.441   4.934   9.180
 3279SOL    HW214685   1.546   4.937   9.055
 3280SOL     OW14686   0.390   5.465   9.008
 3280SOL    HW114687   0.299   5.506   9.006
 3280SOL    HW214688   0.383   5.371   9.040
 3281SOL     OW14689   1.674   4.607   8.702
 3281SOL    HW114690   1.647   4.518   8.665
 3281SOL    HW214691   1.675   4.675   8.629
 3282SOL     OW14692   1.225   4.049   7.897
 3282SOL    HW114693   1.290   3.975   7.886
 3282SOL    HW214694   1.245   4.099   7.981
 3283SOL     OW14695   0.594   4.469   8.100
 3283SOL    HW114696   0.644   4.554   8.081
 3283SOL    HW214697   0.506   4.471   8.052
 3284SOL     OW14698   1.777   4.066   9.090
 3284SOL    HW114699   1.760   4.097   8.996
 3284SOL    HW214700   1.693   4.029   9.128
 3285SOL     OW14701   1.730   4.658   8.965
 3285SOL    HW114702   1.768   4.749   8.980
 3285SOL    HW214703   1.722   4.641   8.866
 3286SOL     OW14704   0.859   5.098   7.464
 3286SOL    HW114705   0.813   5.113   7.552
 3286SOL    HW214706   0.903   5.183   7.434
 3287SOL     OW14707   0.661   5.514   8.401
 3287SOL    HW114708   0.615   5.602   8.388
 3287SOL    HW214709   0.760   5.526   8.394
 3288SOL     OW14710   0.859   4.680   8.309
 3288SOL    HW114711   0.913   4.611   8.357
 3288SOL    HW214712   0.827   4.749   8.375
 3289SOL     OW14713   1.083   4.708   7.535
 3289SOL    HW114714   1.060   4.761   7.453
 3289SOL    HW214715   1.164   4.652   7.516
 3290SOL     OW14716   1.861   5.293   8.299
 3290SOL    HW114717   1.790   5.281   8.229
 3290SOL    HW214718   1.862   5.214   8.359
 3291SOL     OW14719   0.221   5.038   9.292
 3291SOL    HW114720   0.156   4.965   9.271
 3291SOL    HW214721   0.225   5.052   9.390
 3292SOL     OW14722   0.079   4.964   8.101
 3292SOL    HW114723   0.078   4.917   8.189
 3292SOL    HW214724   0.161   4.936   8.050
 3293SOL     OW14725   0.672   5.115   9.072
 3293SOL    HW114726   0.594   5.065   9.110
 3293SOL    HW214727   0.669   5.210   9.103
 3294SOL     OW14728   1.824   3.916   8.675
 3294SOL    HW114729   1.820   3.826   8.719
 3294SOL    HW214730   1.827   3.905   8.576
 3295SOL     OW14731   0.428   4.148   7.968
 3295SOL    HW114732   0.458   4.076   7.906
 3295SOL    HW214733   0.389   4.108   8.051
 3296SOL     OW14734   1.705   5.211   8.552
 3296SOL    HW114735   1.612   5.186   8.525
 3296SOL    HW214736   1.731   5.161   8.634
 3297SOL     OW14737   0.317   4.271   8.728
 3297SOL    HW114738   0.355   4.212   8.800
 3297SOL    HW214739   0.357   4.245   8.640
 3298SOL     OW14740   0.812   5.310   8.135
 3298SOL    HW114741   0.844   5.320   8.041
 3298SOL    HW214742   0.733   5.248   8.137
 3299SOL     OW14743   1.424   3.938   8.560
 3299SOL    HW114744   1.476   3.873   8.615
 3299SOL    HW214745   1.375   4.001   8.621
 3300SOL     OW14746   1.001   3.758   8.602
 3300SOL    HW114747   0.938   3.686   8.571
 3300SOL    HW214748   1.094   3.722   8.602
 3301SOL     OW14749   0.770   5.054   7.749
 3301SOL    HW114750   0.724   4.967   7.766
 3301SOL    HW214751   0.861   5.051   7.790
 3302SOL     OW14752   0.618   5.291   8.732
 3302SOL    HW114753   0.613   5.373   8.789
 3302SOL    HW214754   0.707   5.288   8.687
 3303SOL     OW14755   1.352   3.776   7.616
 3303SOL    HW114756   1.387   3.735   7.532
 3303SOL    HW214757   1.262   3.738   7.636
 3304SOL     OW14758   1.300   4.177   8.139
 3304SOL    HW114759   1.241   4.257   8.143
 3304SOL    HW214760   1.315   4.142   8.232
 3305SOL     OW14761   1.593   3.945   8.330
 3305SOL    HW114762   1.509   3.944   8.384
 3305SOL    HW214763   1.595   4.028   8.274
 3306SOL     OW14764   0.039   4.801   7.748
 3306SOL    HW114765   0.138   4.790   7.739
 3306SOL    HW214766  -0.001   4.715   7.780
 3307SOL     OW14767   0.875   5.370   7.785
 3307SOL    HW114768   0.798   5.335   7.731
 3307SOL    HW214769   0.843   5.441   7.847
 3308SOL     OW14770   0.230   4.352   9.423
 3308SOL    HW114771   0.137   4.350   9.460
 3308SOL    HW214772   0.231   4.313   9.331
 3309SOL     OW14773   1.755   4.331   9.541
 3309SOL    HW114774   1.743   4.318   9.442
 3309SOL    HW214775   1.725   4.250   9.590
 3310SOL     OW14776   0.231   5.437   9.793
 3310SOL    HW114777   0.265   5.514   9.847
 3310SOL    HW214778   0.275   5.437   9.703
 3311SOL     OW14779   0.230   5.158   9.848
 3311SOL    HW114780   0.204   5.254   9.848
 3311SOL    HW214781   0.159   5.104   9.893
 3312SOL     OW14782   0.122   4.367   9.873
 3312SOL    HW114783   0.077   4.279   9.890
 3312SOL    HW214784   0.121   4.421   9.957
 3313SOL     OW14785   1.842   5.491   9.669
 3313SOL    HW114786   1.896   5.462   9.749
 3313SOL    HW214787   1.872   5.581   9.640
 3314SOL     OW14788   0.027   5.320   9.427
 3314SOL    HW114789   0.008   5.224   9.448
 3314SOL    HW214790  -0.006   5.378   9.502
 3315SOL     OW14791   1.689   4.646   9.922
 3315SOL    HW114792   1.784   4.617   9.930
 3315SOL    HW214793   1.681   4.711   9.847
 3316SOL     OW14794   1.641   4.832   9.742
 3316SOL    HW114795   1.727   4.834   9.690
 3316SOL    HW214796   1.655   4.879   9.830
 3317SOL     OW14797   0.613   5.089  10.036
 3317SOL    HW114798   0.564   5.002  10.045
 3317SOL    HW214799   0.590   5.132   9.949
 3318SOL     OW14800   0.809   3.728   9.812
 3318SOL    HW114801   0.849   3.819   9.803
 3318SOL    HW214802   0.709   3.736   9.818
 3319SOL     OW14803   1.525   4.723   9.500
 3319SOL    HW114804   1.462   4.647   9.513
 3319SOL    HW214805   1.573   4.741   9.586
 3320SOL     OW14806   1.576   5.386   9.617
 3320SOL    HW114807   1.665   5.432   9.620
 3320SOL    HW214808   1.555   5.362   9.522
 3321SOL     OW14809   0.076   4.535  10.099
 3321SOL    HW114810   0.175   4.523  10.108
 3321SOL    HW214811   0.052   4.630  10.120
 3322SOL     OW14812   0.865   4.072   9.505
 3322SOL    HW114813   0.924   4.135   9.456
 3322SOL    HW214814   0.884   3.978   9.476
 3323SOL     OW14815   1.362   4.868   9.855
 3323SOL    HW114816   1.445   4.839   9.807
 3323SOL    HW214817   1.313   4.935   9.799
 3324SOL     OW14818   1.008   5.180   9.787
 3324SOL    HW114819   0.962   5.252   9.735
 3324SOL    HW214820   1.004   5.200   9.885
 3325SOL     OW14821   0.351   5.525  10.163
 3325SOL    HW114822   0.401   5.439  10.169
 3325SOL    HW214823   0.416   5.602  10.160
 3326SOL     OW14824   0.321   4.667   9.552
 3326SOL    HW114825   0.403   4.706   9.510
 3326SOL    HW214826   0.294   4.585   9.503
 3327SOL     OW14827   1.111   5.500   9.547
 3327SOL    HW114828   1.051   5.438   9.597
 3327SOL    HW214829   1.142   5.456   9.462
 3328SOL     OW14830   1.632   5.101   9.391
 3328SOL    HW114831   1.600   5.195   9.381
 3328SOL    HW214832   1.556   5.038   9.379
 3329SOL     OW14833   0.464   5.467   9.633
 3329SOL    HW114834   0.497   5.506   9.719
 3329SOL    HW214835   0.540   5.460   9.568
 3330SOL     OW14836   1.400   3.831   9.736
 3330SOL    HW114837   1.376   3.794   9.646
 3330SOL    HW214838   1.499   3.847   9.740
 3331SOL     OW14839   0.382   4.424   9.790
 3331SOL    HW114840   0.427   4.334   9.787
 3331SOL    HW214841   0.288   4.413   9.823
 3332SOL     OW14842   0.614   3.846   9.427
 3332SOL    HW114843   0.712   3.824   9.434
 3332SOL    HW214844   0.583   3.829   9.334
 3333SOL     OW14845   0.539   3.788   9.822
 3333SOL    HW114846   0.458   3.789   9.880
 3333SOL    HW214847   0.542   3.871   9.767
 3334SOL     OW14848   1.434   4.912   9.351
 3334SOL    HW114849   1.466   4.836   9.408
 3334SOL    HW214850   1.342   4.939   9.381
 3335SOL     OW14851   0.297   3.759   9.481
 3335SOL    HW114852   0.346   3.843   9.460
 3335SOL    HW214853   0.359   3.694   9.526
 3336SOL     OW14854   0.459   4.876  10.051
 3336SOL    HW114855   0.388   4.849  10.116
 3336SOL    HW214856   0.433   4.848   9.958
 3337SOL     OW14857   1.271   5.521   9.901
 3337SOL    HW114858   1.315   5.585   9.837
 3337SOL    HW214859   1.221   5.573   9.971
 3338SOL     OW14860   1.032   4.273   9.326
 3338SOL    HW114861   0.991   4.355   9.287
 3338SOL    HW214862   1.096   4.299   9.399
 3339SOL     OW14863   1.857   4.557   9.687
 3339SOL    HW114864   1.899   4.493   9.751
 3339SOL    HW214865   1.819   4.506   9.609
 3340SOL     OW14866   0.488   5.109   9.484
 3340SOL    HW114867   0.401   5.094   9.531
 3340SOL    HW214868   0.471   5.135   9.389
 3341SOL     OW14869   1.390   4.299   9.388
 3341SOL    HW114870   1.336   4.278   9.469
 3341SOL    HW214871   1.481   4.258   9.397
 3342SOL     OW14872   0.705   4.774   9.678
 3342SOL    HW114873   0.691   4.781   9.777
 3342SOL    HW214874   0.789   4.723   9.660
 3343SOL     OW14875   0.367   4.824   9.811
 3343SOL    HW114876   0.360   4.907   9.755
 3343SOL    HW214877   0.371   4.744   9.751
 3344SOL     OW14878   1.252   5.072   9.698
 3344SOL    HW114879   1.302   5.149   9.738
 3344SOL    HW214880   1.157   5.074   9.730
 3345SOL     OW14881   1.582   4.363   9.782
 3345SOL    HW114882   1.551   4.424   9.855
 3345SOL    HW214883   1.632   4.415   9.713
 3346SOL     OW14884   1.209   4.249   9.585
 3346SOL    HW114885   1.222   4.165   9.639
 3346SOL    HW214886   1.180   4.323   9.645
 3347SOL     OW14887   0.307   3.787   9.928
 3347SOL    HW114888   0.296   3.881   9.961
 3347SOL    HW214889   0.302   3.724  10.005
 3348SOL     OW14890   1.622   4.091   9.684
 3348SOL    HW114891   1.624   4.015   9.748
 3348SOL    HW214892   1.574   4.168   9.724
 3349SOL     OW14893   1.540   3.998   9.435
 3349SOL    HW114894   1.479   3.923   9.458
 3349SOL    HW214895   1.562   4.050   9.518
 3350SOL     OW14896   1.303   4.562   9.352
 3350SOL    HW114897   1.337   4.469   9.367
 3350SOL    HW214898   1.321   4.589   9.257
 3351SOL     OW14899   0.008   5.050   9.510
 3351SOL    HW114900  -0.085   5.071   9.479
 3351SOL    HW214901   0.018   4.951   9.523
 3352SOL     OW14902   1.302   4.579   9.619
 3352SOL    HW114903   1.216   4.548   9.661
 3352SOL    HW214904   1.298   4.565   9.520
 3353SOL     OW14905   1.726   3.859   9.833
 3353SOL    HW114906   1.799   3.842   9.766
 3353SOL    HW214907   1.695   3.772   9.871
 3354SOL     OW14908   1.388   5.297   9.787
 3354SOL    HW114909   1.455   5.309   9.713
 3354SOL    HW214910   1.348   5.386   9.810
 3355SOL     OW14911   0.672   5.340   9.464
 3355SOL    HW114912   0.681   5.350   9.365
 3355SOL    HW214913   0.632   5.251   9.485
 3356SOL     OW14914   1.194   5.336   9.341
 3356SOL    HW114915   1.200   5.243   9.378
 3356SOL    HW214916   1.135   5.336   9.261
 3357SOL     OW14917   0.916   4.634   9.601
 3357SOL    HW114918   0.979   4.672   9.533
 3357SOL    HW214919   0.956   4.551   9.640
 3358SOL     OW14920   1.504   5.331   9.354
 3358SOL    HW114921   1.412   5.368   9.361
 3358SOL    HW214922   1.542   5.351   9.264
 3359SOL     OW14923   0.590   5.211   9.801
 3359SOL    HW114924   0.632   5.153   9.731
 3359SOL    HW214925   0.546   5.290   9.757
 3360SOL     OW14926   0.255   5.072   9.600
 3360SOL    HW114927   0.159   5.073   9.573
 3360SOL    HW214928   0.267   5.125   9.684
 3361SOL     OW14929   0.075   4.069   9.343
 3361SOL    HW114930  -0.017   4.041   9.314
 3361SOL    HW214931   0.106   4.146   9.287
 3362SOL     OW14932   0.072   3.890   9.628
 3362SOL    HW114933   0.055   3.973   9.574
 3362SOL    HW214934   0.162   3.853   9.606
 3363SOL     OW14935   1.183   5.059   9.429
 3363SOL    HW114936   1.084   5.048   9.431
 3363SOL    HW214937   1.217   5.074   9.522
 3364SOL     OW14938   0.594   4.469   9.962
 3364SOL    HW114939   0.644   4.554   9.943
 3364SOL    HW214940   0.506   4.471   9.914
 3365SOL     OW14941   0.859   5.098   9.326
 3365SOL    HW114942   0.813   5.113   9.414
 3365SOL    HW214943   0.903   5.183   9.296
 3366SOL     OW14944   1.083   4.708   9.397
 3366SOL    HW114945   1.060   4.761   9.315
 3366SOL    HW214946   1.164   4.652   9.378
 3367SOL     OW14947   0.079   4.964   9.963
 3367SOL    HW114948   0.078   4.917  10.051
 3367SOL    HW214949   0.161   4.936   9.912
 3368SOL     OW14950   0.428   4.148   9.830
 3368SOL    HW114951   0.458   4.076   9.768
 3368SOL    HW214952   0.389   4.108   9.913
 3369SOL     OW14953   0.770   5.054   9.611
 3369SOL    HW114954   0.724   4.967   9.628
 3369SOL    HW214955   0.861   5.051   9.652
 3370SOL     OW14956   1.352   3.776   9.478
 3370SOL    HW114957   1.387   3.735   9.394
 3370SOL    HW214958   1.262   3.738   9.498
 3371SOL     OW14959   0.039   4.801   9.610
 3371SOL    HW114960   0.138   4.790   9.601
 3371SOL    HW214961  -0.001   4.715   9.642
 3372SOL     OW14962   0.875   5.370   9.647
 3372SOL    HW114963   0.798   5.335   9.593
 3372SOL    HW214964   0.843   5.441   9.709
 3373SOL     OW14965   0.230   6.214   0.113
 3373SOL    HW114966   0.137   6.212   0.150
 3373SOL    HW214967   0.231   6.175   0.021
 3374SOL     OW14968   0.225   5.861   0.996
 3374SOL    HW114969   0.260   5.844   1.088
 3374SOL    HW214970   0.137   5.816   0.984
 3375SOL     OW14971   0.019   5.954   0.647
 3375SOL    HW114972  -0.063   5.997   0.686
 3375SOL    HW214973  -0.009   5.881   0.584
 3376SOL     OW14974   0.569   6.861   1.165
 3376SOL    HW114975   0.476   6.854   1.128
 3376SOL    HW214976   0.580   6.950   1.209
 3377SOL     OW14977   1.555   7.097   0.703
 3377SOL    HW114978   1.498   7.081   0.784
 3377SOL    HW214979   1.496   7.107   0.623
 3378SOL     OW14980   1.135   6.289   0.717
 3378SOL    HW114981   1.192   6.367   0.692
 3378SOL    HW214982   1.075   6.315   0.793
 3379SOL     OW14983   1.755   6.193   0.231
 3379SOL    HW114984   1.743   6.180   0.132
 3379SOL    HW214985   1.725   6.112   0.280
 3380SOL     OW14986   0.768   6.730   1.023
 3380SOL    HW114987   0.690   6.747   1.083
 3380SOL    HW214988   0.802   6.817   0.987
 3381SOL     OW14989   0.850   6.384   1.823
 3381SOL    HW114990   0.846   6.460   1.888
 3381SOL    HW214991   0.872   6.420   1.732
 3382SOL     OW14992   0.685   6.598   0.665
 3382SOL    HW114993   0.754   6.582   0.735
 3382SOL    HW214994   0.612   6.655   0.703
 3383SOL     OW14995   0.686   6.747   1.803
 3383SOL    HW114996   0.746   6.826   1.817
 3383SOL    HW214997   0.600   6.778   1.762
 3384SOL     OW14998   0.335   7.021   1.061
 3384SOL    HW114999   0.257   6.990   1.008
 3384SOL    HW215000   0.393   7.079   1.004
 3385SOL     OW15001   1.460   7.091   1.339
 3385SOL    HW115002   1.484   7.185   1.365
 3385SOL    HW215003   1.444   7.037   1.421
 3386SOL     OW15004   0.438   5.978   1.499
 3386SOL    HW115005   0.520   5.922   1.508
 3386SOL    HW215006   0.357   5.920   1.503
 3387SOL     OW15007   1.603   6.033   0.737
 3387SOL    HW115008   1.529   6.079   0.687
 3387SOL    HW215009   1.654   6.101   0.790
 3388SOL     OW15010   0.231   7.299   0.483
 3388SOL    HW115011   0.265   7.376   0.537
 3388SOL    HW215012   0.275   7.299   0.393
 3389SOL     OW15013   1.127   6.927   1.690
 3389SOL    HW115014   1.174   6.927   1.778
 3389SOL    HW215015   1.079   6.840   1.679
 3390SOL     OW15016   0.620   7.372   1.439
 3390SOL    HW115017   0.528   7.355   1.474
 3390SOL    HW215018   0.648   7.464   1.465
 3391SOL     OW15019   0.606   6.550   0.123
 3391SOL    HW115020   0.613   6.634   0.069
 3391SOL    HW215021   0.652   6.563   0.211
 3392SOL     OW15022   1.594   5.700   1.480
 3392SOL    HW115023   1.576   5.767   1.408
 3392SOL    HW215024   1.591   5.746   1.569
 3393SOL     OW15025   0.122   6.229   0.563
 3393SOL    HW115026   0.077   6.141   0.580
 3393SOL    HW215027   0.121   6.283   0.647
 3394SOL     OW15028   1.842   7.353   0.359
 3394SOL    HW115029   1.896   7.324   0.439
 3394SOL    HW215030   1.872   7.443   0.330
 3395SOL     OW15031   0.027   7.182   0.117
 3395SOL    HW115032   0.008   7.086   0.138
 3395SOL    HW215033  -0.006   7.240   0.192
 3396SOL     OW15034   1.689   6.508   0.612
 3396SOL    HW115035   1.784   6.479   0.620
 3396SOL    HW215036   1.681   6.573   0.537
 3397SOL     OW15037   1.641   6.694   0.432
 3397SOL    HW115038   1.727   6.696   0.380
 3397SOL    HW215039   1.655   6.741   0.520
 3398SOL     OW15040   0.113   6.323   1.597
 3398SOL    HW115041   0.201   6.310   1.642
 3398SOL    HW215042   0.100   6.420   1.575
 3399SOL     OW15043   0.613   6.951   0.726
 3399SOL    HW115044   0.564   6.864   0.735
 3399SOL    HW215045   0.590   6.994   0.639
 3400SOL     OW15046   1.293   6.814   1.423
 3400SOL    HW115047   1.330   6.741   1.365
 3400SOL    HW215048   1.345   6.819   1.508
 3401SOL     OW15049   0.809   5.590   0.502
 3401SOL    HW115050   0.849   5.681   0.493
 3401SOL    HW215051   0.709   5.598   0.508
 3402SOL     OW15052   0.197   6.562   1.264
 3402SOL    HW115053   0.286   6.517   1.250
 3402SOL    HW215054   0.124   6.497   1.245
 3403SOL     OW15055   1.525   6.585   0.190
 3403SOL    HW115056   1.462   6.509   0.203
 3403SOL    HW215057   1.573   6.603   0.276
 3404SOL     OW15058   1.187   7.378   1.616
 3404SOL    HW115059   1.211   7.438   1.540
 3404SOL    HW215060   1.194   7.283   1.586
 3405SOL     OW15061   1.466   7.003   0.953
 3405SOL    HW115062   1.407   7.009   1.033
 3405SOL    HW215063   1.451   6.915   0.907
 3406SOL     OW15064   1.667   7.300   0.572
 3406SOL    HW115065   1.626   7.277   0.484
 3406SOL    HW215066   1.649   7.226   0.637
 3407SOL     OW15067   1.281   5.931   0.944
 3407SOL    HW115068   1.195   5.881   0.931
 3407SOL    HW215069   1.343   5.877   1.000
 3408SOL     OW15070   1.576   7.248   0.307
 3408SOL    HW115071   1.665   7.294   0.310
 3408SOL    HW215072   1.555   7.224   0.212
 3409SOL     OW15073   0.807   6.191   1.465
 3409SOL    HW115074   0.760   6.188   1.554
 3409SOL    HW215075   0.756   6.136   1.399
 3410SOL     OW15076   1.394   6.055   1.674
 3410SOL    HW115077   1.374   6.098   1.762
 3410SOL    HW215078   1.472   5.993   1.683
 3411SOL     OW15079   0.973   6.476   1.572
 3411SOL    HW115080   1.019   6.392   1.543
 3411SOL    HW215081   0.917   6.510   1.497
 3412SOL     OW15082   0.991   5.996   1.242
 3412SOL    HW115083   0.914   6.030   1.296
 3412SOL    HW215084   0.957   5.945   1.163
 3413SOL     OW15085   1.041   6.287   0.429
 3413SOL    HW115086   1.067   6.283   0.525
 3413SOL    HW215087   0.956   6.236   0.415
 3414SOL     OW15088   0.076   6.397   0.789
 3414SOL    HW115089   0.175   6.385   0.798
 3414SOL    HW215090   0.052   6.492   0.810
 3415SOL     OW15091   0.130   7.407   1.571
 3415SOL    HW115092   0.120   7.392   1.670
 3415SOL    HW215093   0.044   7.443   1.535
 3416SOL     OW15094   0.865   5.934   0.195
 3416SOL    HW115095   0.924   5.997   0.146
 3416SOL    HW215096   0.884   5.840   0.166
 3417SOL     OW15097   1.362   6.730   0.545
 3417SOL    HW115098   1.445   6.701   0.497
 3417SOL    HW215099   1.313   6.797   0.489
 3418SOL     OW15100   0.550   5.782   0.885
 3418SOL    HW115101   0.545   5.777   0.985
 3418SOL    HW215102   0.552   5.878   0.856
 3419SOL     OW15103   1.008   7.042   0.477
 3419SOL    HW115104   0.962   7.114   0.425
 3419SOL    HW215105   1.004   7.062   0.575
 3420SOL     OW15106   0.351   7.387   0.853
 3420SOL    HW115107   0.401   7.301   0.859
 3420SOL    HW215108   0.416   7.464   0.850
 3421SOL     OW15109   1.795   6.652   0.873
 3421SOL    HW115110   1.733   6.637   0.797
 3421SOL    HW215111   1.743   6.663   0.958
 3422SOL     OW15112   1.227   7.136   1.506
 3422SOL    HW115113   1.233   7.059   1.570
 3422SOL    HW215114   1.175   7.110   1.426
 3423SOL     OW15115   1.458   6.321   0.728
 3423SOL    HW115116   1.453   6.256   0.803
 3423SOL    HW215117   1.538   6.380   0.741
 3424SOL     OW15118   0.461   6.852   1.727
 3424SOL    HW115119   0.411   6.853   1.641
 3424SOL    HW215120   0.398   6.834   1.803
 3425SOL     OW15121   1.111   7.362   0.237
 3425SOL    HW115122   1.051   7.300   0.287
 3425SOL    HW215123   1.142   7.318   0.152
 3426SOL     OW15124   0.202   5.871   1.498
 3426SOL    HW115125   0.122   5.931   1.485
 3426SOL    HW215126   0.192   5.822   1.584
 3427SOL     OW15127   1.632   6.963   0.081
 3427SOL    HW115128   1.600   7.057   0.071
 3427SOL    HW215129   1.556   6.900   0.069
 3428SOL     OW15130   0.464   7.329   0.323
 3428SOL    HW115131   0.497   7.368   0.409
 3428SOL    HW215132   0.540   7.322   0.258
 3429SOL     OW15133   1.400   5.693   0.426
 3429SOL    HW115134   1.376   5.656   0.336
 3429SOL    HW215135   1.499   5.709   0.430
 3430SOL     OW15136   0.249   7.371   1.241
 3430SOL    HW115137   0.306   7.306   1.291
 3430SOL    HW215138   0.233   7.338   1.148
 3431SOL     OW15139   0.614   5.708   0.117
 3431SOL    HW115140   0.712   5.686   0.124
 3431SOL    HW215141   0.583   5.691   0.024
 3432SOL     OW15142   0.781   5.850   1.749
 3432SOL    HW115143   0.848   5.789   1.792
 3432SOL    HW215144   0.708   5.869   1.814
 3433SOL     OW15145   0.888   7.100   1.195
 3433SOL    HW115146   0.865   7.075   1.101
 3433SOL    HW215147   0.949   7.031   1.234
 3434SOL     OW15148   1.351   6.176   1.433
 3434SOL    HW115149   1.379   6.133   1.518
 3434SOL    HW215150   1.376   6.272   1.434
 3435SOL     OW15151   0.803   6.988   0.924
 3435SOL    HW115152   0.893   7.002   0.882
 3435SOL    HW215153   0.732   6.990   0.853
 3436SOL     OW15154   0.922   6.089   0.899
 3436SOL    HW115155   0.897   6.080   0.803
 3436SOL    HW215156   0.970   6.007   0.930
 3437SOL     OW15157   0.539   5.650   0.512
 3437SOL    HW115158   0.458   5.651   0.570
 3437SOL    HW215159   0.542   5.733   0.457
 3438SOL     OW15160   1.434   6.774   0.041
 3438SOL    HW115161   1.466   6.698   0.098
 3438SOL    HW215162   1.342   6.801   0.071
 3439SOL     OW15163   0.935   5.822   0.480
 3439SOL    HW115164   0.887   5.863   0.402
 3439SOL    HW215165   1.034   5.820   0.461
 3440SOL     OW15166   1.076   6.269   1.464
 3440SOL    HW115167   0.996   6.208   1.467
 3440SOL    HW215168   1.157   6.216   1.440
 3441SOL     OW15169   1.227   7.156   0.793
 3441SOL    HW115170   1.248   7.230   0.728
 3441SOL    HW215171   1.295   7.156   0.866
 3442SOL     OW15172   1.271   7.383   0.591
 3442SOL    HW115173   1.315   7.447   0.527
 3442SOL    HW215174   1.221   7.435   0.661
 3443SOL     OW15175   1.032   6.135   0.016
 3443SOL    HW115176   0.991   6.217  -0.023
 3443SOL    HW215177   1.096   6.161   0.089
 3444SOL     OW15178   0.078   6.142   1.386
 3444SOL    HW115179   0.170   6.141   1.345
 3444SOL    HW215180   0.072   6.216   1.453
 3445SOL     OW15181   0.561   5.808   1.147
 3445SOL    HW115182   0.599   5.724   1.184
 3445SOL    HW215183   0.473   5.827   1.191
 3446SOL     OW15184   0.866   6.040   0.642
 3446SOL    HW115185   0.834   6.112   0.580
 3446SOL    HW215186   0.890   5.959   0.589
 3447SOL     OW15187   1.017   5.625   0.753
 3447SOL    HW115188   0.945   5.630   0.684
 3447SOL    HW215189   0.993   5.556   0.822
 3448SOL     OW15190   1.429   6.759   0.867
 3448SOL    HW115191   1.374   6.675   0.860
 3448SOL    HW215192   1.455   6.788   0.775
 3449SOL     OW15193   1.466   6.176   0.992
 3449SOL    HW115194   1.436   6.081   0.999
 3449SOL    HW215195   1.539   6.192   1.058
 3450SOL     OW15196   1.857   6.419   0.377
 3450SOL    HW115197   1.899   6.355   0.441
 3450SOL    HW215198   1.819   6.368   0.299
 3451SOL     OW15199   0.488   6.971   0.174
 3451SOL    HW115200   0.401   6.956   0.221
 3451SOL    HW215201   0.471   6.997   0.079
 3452SOL     OW15202   1.664   6.866   0.657
 3452SOL    HW115203   1.763   6.874   0.671
 3452SOL    HW215204   1.619   6.950   0.688
 3453SOL     OW15205   1.390   6.161   0.078
 3453SOL    HW115206   1.336   6.140   0.159
 3453SOL    HW215207   1.481   6.120   0.087
 3454SOL     OW15208   0.527   5.842   0.328
 3454SOL    HW115209   0.554   5.783   0.253
 3454SOL    HW215210   0.527   5.937   0.297
 3455SOL     OW15211   1.754   6.809   1.588
 3455SOL    HW115212   1.845   6.770   1.575
 3455SOL    HW215213   1.762   6.905   1.612
 3456SOL     OW15214   1.064   6.933   1.340
 3456SOL    HW115215   0.984   6.910   1.395
 3456SOL    HW215216   1.147   6.907   1.389
 3457SOL     OW15217   1.592   7.215   1.625
 3457SOL    HW115218   1.619   7.249   1.535
 3457SOL    HW215219   1.671   7.177   1.671
 3458SOL     OW15220   1.111   6.781   1.100
 3458SOL    HW115221   1.071   6.825   1.181
 3458SOL    HW215222   1.070   6.818   1.017
 3459SOL     OW15223   1.638   6.685   1.079
 3459SOL    HW115224   1.643   6.766   1.138
 3459SOL    HW215225   1.552   6.687   1.028
 3460SOL     OW15226   0.915   5.675   1.402
 3460SOL    HW115227   0.940   5.655   1.307
 3460SOL    HW215228   0.987   5.731   1.444
 3461SOL     OW15229   0.980   6.702   1.719
 3461SOL    HW115230   0.881   6.708   1.729
 3461SOL    HW215231   1.003   6.622   1.663
 3462SOL     OW15232   0.705   6.636   0.368
 3462SOL    HW115233   0.691   6.643   0.467
 3462SOL    HW215234   0.789   6.585   0.350
 3463SOL     OW15235   0.410   6.399   1.251
 3463SOL    HW115236   0.496   6.411   1.301
 3463SOL    HW215237   0.368   6.312   1.278
 3464SOL     OW15238   1.274   5.972   1.262
 3464SOL    HW115239   1.295   6.046   1.326
 3464SOL    HW215240   1.185   5.989   1.219
 3465SOL     OW15241   0.064   7.150   1.331
 3465SOL    HW115242   0.018   7.232   1.297
 3465SOL    HW215243   0.162   7.169   1.340
 3466SOL     OW15244   0.566   6.123   0.865
 3466SOL    HW115245   0.578   6.189   0.791
 3466SOL    HW215246   0.612   6.157   0.948
 3467SOL     OW15247   1.252   6.934   0.388
 3467SOL    HW115248   1.302   7.011   0.428
 3467SOL    HW215249   1.157   6.936   0.420
 3468SOL     OW15250   1.272   7.031   1.142
 3468SOL    HW115251   1.319   7.044   1.229
 3468SOL    HW215252   1.206   6.957   1.151
 3469SOL     OW15253   1.582   6.225   0.472
 3469SOL    HW115254   1.551   6.286   0.545
 3469SOL    HW215255   1.632   6.277   0.403
 3470SOL     OW15256   0.354   7.096   1.329
 3470SOL    HW115257   0.333   7.052   1.242
 3470SOL    HW215258   0.451   7.122   1.332
 3471SOL     OW15259   0.402   6.337   1.598
 3471SOL    HW115260   0.470   6.392   1.551
 3471SOL    HW215261   0.442   6.249   1.625
 3472SOL     OW15262   1.587   6.365   1.670
 3472SOL    HW115263   1.495   6.403   1.665
 3472SOL    HW215264   1.647   6.412   1.605
 3473SOL     OW15265   1.013   5.691   1.770
 3473SOL    HW115266   1.019   5.776   1.718
 3473SOL    HW215267   1.045   5.615   1.713
 3474SOL     OW15268   0.504   5.636   1.740
 3474SOL    HW115269   0.462   5.579   1.670
 3474SOL    HW215270   0.438   5.705   1.772
 3475SOL     OW15271   0.573   6.456   1.029
 3475SOL    HW115272   0.617   6.545   1.020
 3475SOL    HW215273   0.510   6.456   1.106
 3476SOL     OW15274   1.360   6.448   1.045
 3476SOL    HW115275   1.285   6.448   0.979
 3476SOL    HW215276   1.397   6.356   1.054
 3477SOL     OW15277   1.209   6.111   0.275
 3477SOL    HW115278   1.222   6.027   0.329
 3477SOL    HW215279   1.180   6.185   0.335
 3478SOL     OW15280   0.307   5.799   1.231
 3478SOL    HW115281   0.284   5.836   1.321
 3478SOL    HW215282   0.277   5.704   1.225
 3479SOL     OW15283   0.037   6.896   1.282
 3479SOL    HW115284   0.090   6.847   1.350
 3479SOL    HW215285   0.059   6.994   1.287
 3480SOL     OW15286   1.728   6.521   1.854
 3480SOL    HW115287   1.682   6.514   1.765
 3480SOL    HW215288   1.666   6.565   1.920
 3481SOL     OW15289   0.307   5.649   0.618
 3481SOL    HW115290   0.296   5.743   0.651
 3481SOL    HW215291   0.302   5.586   0.695
 3482SOL     OW15292   1.622   5.953   0.374
 3482SOL    HW115293   1.624   5.877   0.438
 3482SOL    HW215294   1.574   6.030   0.414
 3483SOL     OW15295   0.980   7.159   1.700
 3483SOL    HW115296   0.960   7.203   1.612
 3483SOL    HW215297   1.019   7.068   1.684
 3484SOL     OW15298   1.859   7.104   1.605
 3484SOL    HW115299   1.873   7.131   1.510
 3484SOL    HW215300   1.942   7.126   1.658
 3485SOL     OW15301   0.350   6.484   1.804
 3485SOL    HW115302   0.426   6.528   1.852
 3485SOL    HW215303   0.385   6.437   1.722
 3486SOL     OW15304   1.540   5.860   0.125
 3486SOL    HW115305   1.479   5.785   0.148
 3486SOL    HW215306   1.562   5.912   0.208
 3487SOL     OW15307   1.303   6.424   0.042
 3487SOL    HW115308   1.337   6.331   0.057
 3487SOL    HW215309   1.321   6.451  -0.053
 3488SOL     OW15310   1.068   6.919   0.849
 3488SOL    HW115311   1.075   6.835   0.794
 3488SOL    HW215312   1.130   6.988   0.813
 3489SOL     OW15313   0.319   6.396   0.949
 3489SOL    HW115314   0.412   6.432   0.954
 3489SOL    HW215315   0.313   6.311   1.001
 3490SOL     OW15316   0.339   6.095   1.006
 3490SOL    HW115317   0.287   6.012   0.989
 3490SOL    HW215318   0.416   6.100   0.942
 3491SOL     OW15319   1.138   5.966   1.678
 3491SOL    HW115320   1.093   6.029   1.742
 3491SOL    HW215321   1.231   5.997   1.661
 3492SOL     OW15322   1.160   5.793   1.477
 3492SOL    HW115323   1.160   5.857   1.554
 3492SOL    HW215324   1.188   5.841   1.394
 3493SOL     OW15325   0.088   7.387   0.927
 3493SOL    HW115326   0.046   7.301   0.900
 3493SOL    HW215327   0.182   7.390   0.893
 3494SOL     OW15328   0.040   6.130   1.114
 3494SOL    HW115329   0.125   6.097   1.073
 3494SOL    HW215330   0.053   6.145   1.212
 3495SOL     OW15331   1.369   6.536   1.660
 3495SOL    HW115332   1.408   6.625   1.680
 3495SOL    HW215333   1.379   6.516   1.563
 3496SOL     OW15334   0.815   6.158   0.325
 3496SOL    HW115335   0.822   6.069   0.279
 3496SOL    HW215336   0.721   6.192   0.317
 3497SOL     OW15337   1.657   6.190   1.206
 3497SOL    HW115338   1.619   6.121   1.268
 3497SOL    HW215339   1.739   6.154   1.162
 3498SOL     OW15340   0.252   7.150   1.744
 3498SOL    HW115341   0.222   7.207   1.820
 3498SOL    HW215342   0.245   7.053   1.770
 3499SOL     OW15343   0.671   6.050   1.269
 3499SOL    HW115344   0.637   5.961   1.239
 3499SOL    HW215345   0.697   6.104   1.189
 3500SOL     OW15346   0.930   7.264   1.465
 3500SOL    HW115347   0.906   7.246   1.370
 3500SOL    HW215348   0.960   7.358   1.475
 3501SOL     OW15349   0.159   6.723   1.466
 3501SOL    HW115350   0.181   6.662   1.542
 3501SOL    HW215351   0.169   6.674   1.380
 3502SOL     OW15352   1.347   6.645   1.234
 3502SOL    HW115353   1.371   6.582   1.160
 3502SOL    HW215354   1.257   6.685   1.216
 3503SOL     OW15355   1.302   6.441   0.309
 3503SOL    HW115356   1.216   6.410   0.351
 3503SOL    HW215357   1.298   6.427   0.210
 3504SOL     OW15358   1.759   7.333   1.154
 3504SOL    HW115359   1.820   7.363   1.081
 3504SOL    HW215360   1.721   7.244   1.132
 3505SOL     OW15361   1.252   7.317   1.128
 3505SOL    HW115362   1.336   7.322   1.074
 3505SOL    HW215363   1.229   7.221   1.146
 3506SOL     OW15364   0.083   6.844   1.022
 3506SOL    HW115365   0.078   6.843   1.122
 3506SOL    HW215366   0.000   6.803   0.984
 3507SOL     OW15367   0.688   7.248   1.716
 3507SOL    HW115368   0.632   7.329   1.725
 3507SOL    HW215369   0.740   7.252   1.630
 3508SOL     OW15370   0.903   5.672   0.133
 3508SOL    HW115371   0.954   5.673   0.047
 3508SOL    HW215372   0.959   5.630   0.204
 3509SOL     OW15373   1.726   5.721   0.523
 3509SOL    HW115374   1.799   5.704   0.456
 3509SOL    HW215375   1.695   5.634   0.561
 3510SOL     OW15376   1.388   7.159   0.477
 3510SOL    HW115377   1.455   7.171   0.403
 3510SOL    HW215378   1.348   7.248   0.500
 3511SOL     OW15379   1.280   6.513   0.672
 3511SOL    HW115380   1.340   6.432   0.674
 3511SOL    HW215381   1.320   6.582   0.612
 3512SOL     OW15382   0.830   6.859   1.422
 3512SOL    HW115383   0.825   6.892   1.517
 3512SOL    HW215384   0.744   6.878   1.376
 3513SOL     OW15385   0.672   7.202   0.154
 3513SOL    HW115386   0.681   7.212   0.055
 3513SOL    HW215387   0.632   7.113   0.175
 3514SOL     OW15388   1.650   7.306   1.394
 3514SOL    HW115389   1.703   7.316   1.310
 3514SOL    HW215390   1.623   7.396   1.428
 3515SOL     OW15391   1.841   5.761   0.963
 3515SOL    HW115392   1.880   5.676   0.927
 3515SOL    HW215393   1.743   5.763   0.944
 3516SOL     OW15394   0.263   5.912   0.720
 3516SOL    HW115395   0.184   5.963   0.686
 3516SOL    HW215396   0.254   5.897   0.818
 3517SOL     OW15397   1.194   7.198   0.031
 3517SOL    HW115398   1.200   7.105   0.068
 3517SOL    HW215399   1.135   7.198  -0.049
 3518SOL     OW15400   0.822   6.588   1.372
 3518SOL    HW115401   0.862   6.587   1.280
 3518SOL    HW215402   0.832   6.680   1.412
 3519SOL     OW15403   0.916   6.496   0.291
 3519SOL    HW115404   0.979   6.534   0.223
 3519SOL    HW215405   0.956   6.413   0.330
 3520SOL     OW15406   0.372   6.874   1.490
 3520SOL    HW115407   0.359   6.967   1.456
 3520SOL    HW215408   0.288   6.822   1.477
 3521SOL     OW15409   1.614   6.878   1.289
 3521SOL    HW115410   1.674   6.881   1.369
 3521SOL    HW215411   1.539   6.942   1.302
 3522SOL     OW15412   1.039   6.684   0.696
 3522SOL    HW115413   0.969   6.637   0.750
 3522SOL    HW215414   1.098   6.616   0.653
 3523SOL     OW15415   1.014   5.822   0.971
 3523SOL    HW115416   1.006   5.786   0.878
 3523SOL    HW215417   1.012   5.746   1.036
 3524SOL     OW15418   0.590   7.073   0.491
 3524SOL    HW115419   0.632   7.015   0.421
 3524SOL    HW215420   0.546   7.152   0.447
 3525SOL     OW15421   0.255   6.934   0.290
 3525SOL    HW115422   0.159   6.935   0.263
 3525SOL    HW215423   0.267   6.987   0.374
 3526SOL     OW15424   0.105   6.599   1.726
 3526SOL    HW115425   0.028   6.566   1.780
 3526SOL    HW215426   0.190   6.569   1.768
 3527SOL     OW15427   0.672   5.789   1.489
 3527SOL    HW115428   0.762   5.773   1.449
 3527SOL    HW215429   0.680   5.794   1.588
 3528SOL     OW15430   0.075   5.931   0.033
 3528SOL    HW115431  -0.017   5.903   0.004
 3528SOL    HW215432   0.106   6.008  -0.023
 3529SOL     OW15433   1.440   6.442   1.398
 3529SOL    HW115434   1.383   6.494   1.335
 3529SOL    HW215435   1.536   6.454   1.374
 3530SOL     OW15436   0.072   5.752   0.318
 3530SOL    HW115437   0.055   5.835   0.264
 3530SOL    HW215438   0.162   5.715   0.296
 3531SOL     OW15439   1.183   6.921   0.119
 3531SOL    HW115440   1.084   6.910   0.121
 3531SOL    HW215441   1.217   6.936   0.212
 3532SOL     OW15442   0.613   6.428   1.431
 3532SOL    HW115443   0.669   6.509   1.414
 3532SOL    HW215444   0.672   6.348   1.434
 3533SOL     OW15445   1.493   7.353   0.959
 3533SOL    HW115446   1.526   7.417   0.890
 3533SOL    HW215447   1.559   7.347   1.034
 3534SOL     OW15448   0.716   6.151   1.708
 3534SOL    HW115449   0.735   6.216   1.782
 3534SOL    HW215450   0.776   6.071   1.717
 3535SOL     OW15451   1.450   6.806   1.633
 3535SOL    HW115452   1.441   6.796   1.732
 3535SOL    HW215453   1.546   6.799   1.607
 3536SOL     OW15454   0.390   7.327   1.560
 3536SOL    HW115455   0.299   7.368   1.558
 3536SOL    HW215456   0.383   7.233   1.592
 3537SOL     OW15457   1.674   6.469   1.254
 3537SOL    HW115458   1.647   6.380   1.217
 3537SOL    HW215459   1.675   6.537   1.181
 3538SOL     OW15460   1.225   5.911   0.449
 3538SOL    HW115461   1.290   5.837   0.438
 3538SOL    HW215462   1.245   5.961   0.533
 3539SOL     OW15463   0.594   6.331   0.652
 3539SOL    HW115464   0.644   6.416   0.633
 3539SOL    HW215465   0.506   6.333   0.604
 3540SOL     OW15466   1.730   6.520   1.517
 3540SOL    HW115467   1.768   6.611   1.532
 3540SOL    HW215468   1.722   6.503   1.418
 3541SOL     OW15469   0.859   6.960   0.016
 3541SOL    HW115470   0.813   6.975   0.104
 3541SOL    HW215471   0.903   7.045  -0.014
 3542SOL     OW15472   1.083   6.570   0.087
 3542SOL    HW115473   1.060   6.623   0.005
 3542SOL    HW215474   1.164   6.514   0.068
 3543SOL     OW15475   1.861   7.155   0.851
 3543SOL    HW115476   1.790   7.143   0.781
 3543SOL    HW215477   1.862   7.076   0.911
 3544SOL     OW15478   0.221   6.900   1.844
 3544SOL    HW115479   0.156   6.827   1.823
 3544SOL    HW215480   0.225   6.914   1.942
 3545SOL     OW15481   0.672   6.977   1.624
 3545SOL    HW115482   0.594   6.927   1.662
 3545SOL    HW215483   0.669   7.072   1.655
 3546SOL     OW15484   1.824   5.778   1.227
 3546SOL    HW115485   1.820   5.688   1.271
 3546SOL    HW215486   1.827   5.767   1.128
 3547SOL     OW15487   0.428   6.010   0.520
 3547SOL    HW115488   0.458   5.938   0.458
 3547SOL    HW215489   0.389   5.970   0.603
 3548SOL     OW15490   1.705   7.073   1.104
 3548SOL    HW115491   1.612   7.048   1.077
 3548SOL    HW215492   1.731   7.023   1.186
 3549SOL     OW15493   0.317   6.133   1.280
 3549SOL    HW115494   0.355   6.074   1.352
 3549SOL    HW215495   0.357   6.107   1.192
 3550SOL     OW15496   0.812   7.172   0.687
 3550SOL    HW115497   0.844   7.182   0.593
 3550SOL    HW215498   0.733   7.110   0.689
 3551SOL     OW15499   1.424   5.800   1.112
 3551SOL    HW115500   1.476   5.735   1.167
 3551SOL    HW215501   1.375   5.863   1.173
 3552SOL     OW15502   1.001   5.620   1.154
 3552SOL    HW115503   0.938   5.548   1.123
 3552SOL    HW215504   1.094   5.584   1.154
 3553SOL     OW15505   0.770   6.916   0.301
 3553SOL    HW115506   0.724   6.829   0.318
 3553SOL    HW215507   0.861   6.913   0.342
 3554SOL     OW15508   0.618   7.153   1.284
 3554SOL    HW115509   0.613   7.235   1.341
 3554SOL    HW215510   0.707   7.150   1.239
 3555SOL     OW15511   1.352   5.638   0.168
 3555SOL    HW115512   1.387   5.597   0.084
 3555SOL    HW215513   1.262   5.600   0.188
 3556SOL     OW15514   1.300   6.039   0.691
 3556SOL    HW115515   1.241   6.119   0.695
 3556SOL    HW215516   1.315   6.004   0.784
 3557SOL     OW15517   1.593   5.807   0.882
 3557SOL    HW115518   1.509   5.806   0.936
 3557SOL    HW215519   1.595   5.890   0.826
 3558SOL     OW15520   0.875   7.232   0.337
 3558SOL    HW115521   0.798   7.197   0.283
 3558SOL    HW215522   0.843   7.303   0.399
 3559SOL     OW15523   0.230   6.214   1.975
 3559SOL    HW115524   0.137   6.212   2.012
 3559SOL    HW215525   0.231   6.175   1.883
 3560SOL     OW15526   0.225   5.861   2.858
 3560SOL    HW115527   0.260   5.844   2.950
 3560SOL    HW215528   0.137   5.816   2.846
 3561SOL     OW15529   0.019   5.954   2.509
 3561SOL    HW115530  -0.063   5.997   2.548
 3561SOL    HW215531  -0.009   5.881   2.446
 3562SOL     OW15532   0.569   6.861   3.027
 3562SOL    HW115533   0.476   6.854   2.990
 3562SOL    HW215534   0.580   6.950   3.071
 3563SOL     OW15535   1.555   7.097   2.565
 3563SOL    HW115536   1.498   7.081   2.646
 3563SOL    HW215537   1.496   7.107   2.485
 3564SOL     OW15538   1.135   6.289   2.579
 3564SOL    HW115539   1.192   6.367   2.554
 3564SOL    HW215540   1.075   6.315   2.655
 3565SOL     OW15541   0.768   6.730   2.885
 3565SOL    HW115542   0.690   6.747   2.945
 3565SOL    HW215543   0.802   6.817   2.849
 3566SOL     OW15544   0.850   6.384   3.685
 3566SOL    HW115545   0.846   6.460   3.750
 3566SOL    HW215546   0.872   6.420   3.594
 3567SOL     OW15547   0.685   6.598   2.527
 3567SOL    HW115548   0.754   6.582   2.597
 3567SOL    HW215549   0.612   6.655   2.565
 3568SOL     OW15550   0.686   6.747   3.665
 3568SOL    HW115551   0.746   6.826   3.679
 3568SOL    HW215552   0.600   6.778   3.624
 3569SOL     OW15553   0.335   7.021   2.923
 3569SOL    HW115554   0.257   6.990   2.870
 3569SOL    HW215555   0.393   7.079   2.866
 3570SOL     OW15556   1.460   7.091   3.201
 3570SOL    HW115557   1.484   7.185   3.227
 3570SOL    HW215558   1.444   7.037   3.283
 3571SOL     OW15559   0.438   5.978   3.361
 3571SOL    HW115560   0.520   5.922   3.370
 3571SOL    HW215561   0.357   5.920   3.365
 3572SOL     OW15562   1.603   6.033   2.599
 3572SOL    HW115563   1.529   6.079   2.549
 3572SOL    HW215564   1.654   6.101   2.652
 3573SOL     OW15565   1.127   6.927   3.552
 3573SOL    HW115566   1.174   6.927   3.640
 3573SOL    HW215567   1.079   6.840   3.541
 3574SOL     OW15568   0.240   6.677   2.748
 3574SOL    HW115569   0.254   6.593   2.800
 3574SOL    HW215570   0.185   6.741   2.803
 3575SOL     OW15571   0.620   7.372   3.301
 3575SOL    HW115572   0.528   7.355   3.336
 3575SOL    HW215573   0.648   7.464   3.327
 3576SOL     OW15574   0.606   6.550   1.985
 3576SOL    HW115575   0.613   6.634   1.931
 3576SOL    HW215576   0.652   6.563   2.073
 3577SOL     OW15577   1.594   5.700   3.342
 3577SOL    HW115578   1.576   5.767   3.270
 3577SOL    HW215579   1.591   5.746   3.431
 3578SOL     OW15580   0.122   6.229   2.425
 3578SOL    HW115581   0.077   6.141   2.442
 3578SOL    HW215582   0.121   6.283   2.509
 3579SOL     OW15583   1.842   7.353   2.221
 3579SOL    HW115584   1.896   7.324   2.301
 3579SOL    HW215585   1.872   7.443   2.192
 3580SOL     OW15586   0.027   7.182   1.979
 3580SOL    HW115587   0.008   7.086   2.000
 3580SOL    HW215588  -0.006   7.240   2.054
 3581SOL     OW15589   1.689   6.508   2.474
 3581SOL    HW115590   1.784   6.479   2.482
 3581SOL    HW215591   1.681   6.573   2.399
 3582SOL     OW15592   1.641   6.694   2.294
 3582SOL    HW115593   1.727   6.696   2.242
 3582SOL    HW215594   1.655   6.741   2.382
 3583SOL     OW15595   0.113   6.323   3.459
 3583SOL    HW115596   0.201   6.310   3.504
 3583SOL    HW215597   0.100   6.420   3.437
 3584SOL     OW15598   0.613   6.951   2.588
 3584SOL    HW115599   0.564   6.864   2.597
 3584SOL    HW215600   0.590   6.994   2.501
 3585SOL     OW15601   1.293   6.814   3.285
 3585SOL    HW115602   1.330   6.741   3.227
 3585SOL    HW215603   1.345   6.819   3.370
 3586SOL     OW15604   0.809   5.590   2.364
 3586SOL    HW115605   0.849   5.681   2.355
 3586SOL    HW215606   0.709   5.598   2.370
 3587SOL     OW15607   0.197   6.562   3.126
 3587SOL    HW115608   0.286   6.517   3.112
 3587SOL    HW215609   0.124   6.497   3.107
 3588SOL     OW15610   1.525   6.585   2.052
 3588SOL    HW115611   1.462   6.509   2.065
 3588SOL    HW215612   1.573   6.603   2.138
 3589SOL     OW15613   1.187   7.378   3.478
 3589SOL    HW115614   1.211   7.438   3.402
 3589SOL    HW215615   1.194   7.283   3.448
 3590SOL     OW15616   0.317   5.837   3.663
 3590SOL    HW115617   0.388   5.908   3.669
 3590SOL    HW215618   0.229   5.876   3.691
 3591SOL     OW15619   1.466   7.003   2.815
 3591SOL    HW115620   1.407   7.009   2.895
 3591SOL    HW215621   1.451   6.915   2.769
 3592SOL     OW15622   1.667   7.300   2.434
 3592SOL    HW115623   1.626   7.277   2.346
 3592SOL    HW215624   1.649   7.226   2.499
 3593SOL     OW15625   0.598   6.315   2.132
 3593SOL    HW115626   0.622   6.384   2.064
 3593SOL    HW215627   0.520   6.348   2.186
 3594SOL     OW15628   1.281   5.931   2.806
 3594SOL    HW115629   1.195   5.881   2.793
 3594SOL    HW215630   1.343   5.877   2.862
 3595SOL     OW15631   1.576   7.248   2.169
 3595SOL    HW115632   1.665   7.294   2.172
 3595SOL    HW215633   1.555   7.224   2.074
 3596SOL     OW15634   0.807   6.191   3.327
 3596SOL    HW115635   0.760   6.188   3.416
 3596SOL    HW215636   0.756   6.136   3.261
 3597SOL     OW15637   1.394   6.055   3.536
 3597SOL    HW115638   1.374   6.098   3.624
 3597SOL    HW215639   1.472   5.993   3.545
 3598SOL     OW15640   0.973   6.476   3.434
 3598SOL    HW115641   1.019   6.392   3.405
 3598SOL    HW215642   0.917   6.510   3.359
 3599SOL     OW15643   0.991   5.996   3.104
 3599SOL    HW115644   0.914   6.030   3.158
 3599SOL    HW215645   0.957   5.945   3.025
 3600SOL     OW15646   1.041   6.287   2.291
 3600SOL    HW115647   1.067   6.283   2.387
 3600SOL    HW215648   0.956   6.236   2.277
 3601SOL     OW15649   0.076   6.397   2.651
 3601SOL    HW115650   0.175   6.385   2.660
 3601SOL    HW215651   0.052   6.492   2.672
 3602SOL     OW15652   0.130   7.407   3.433
 3602SOL    HW115653   0.120   7.392   3.532
 3602SOL    HW215654   0.044   7.443   3.397
 3603SOL     OW15655   0.865   5.934   2.057
 3603SOL    HW115656   0.924   5.997   2.008
 3603SOL    HW215657   0.884   5.840   2.028
 3604SOL     OW15658   1.719   6.171   3.693
 3604SOL    HW115659   1.693   6.260   3.657
 3604SOL    HW215660   1.717   6.103   3.620
 3605SOL     OW15661   1.362   6.730   2.407
 3605SOL    HW115662   1.445   6.701   2.359
 3605SOL    HW215663   1.313   6.797   2.351
 3606SOL     OW15664   0.550   5.782   2.747
 3606SOL    HW115665   0.545   5.777   2.847
 3606SOL    HW215666   0.552   5.878   2.718
 3607SOL     OW15667   0.351   7.387   2.715
 3607SOL    HW115668   0.401   7.301   2.721
 3607SOL    HW215669   0.416   7.464   2.712
 3608SOL     OW15670   1.795   6.652   2.735
 3608SOL    HW115671   1.733   6.637   2.659
 3608SOL    HW215672   1.743   6.663   2.820
 3609SOL     OW15673   1.227   7.136   3.368
 3609SOL    HW115674   1.233   7.059   3.432
 3609SOL    HW215675   1.175   7.110   3.288
 3610SOL     OW15676   0.321   6.529   2.104
 3610SOL    HW115677   0.403   6.568   2.062
 3610SOL    HW215678   0.294   6.447   2.055
 3611SOL     OW15679   1.458   6.321   2.590
 3611SOL    HW115680   1.453   6.256   2.665
 3611SOL    HW215681   1.538   6.380   2.603
 3612SOL     OW15682   0.461   6.852   3.589
 3612SOL    HW115683   0.411   6.853   3.503
 3612SOL    HW215684   0.398   6.834   3.665
 3613SOL     OW15685   0.202   5.871   3.360
 3613SOL    HW115686   0.122   5.931   3.347
 3613SOL    HW215687   0.192   5.822   3.446
 3614SOL     OW15688   1.632   6.963   1.943
 3614SOL    HW115689   1.600   7.057   1.933
 3614SOL    HW215690   1.556   6.900   1.931
 3615SOL     OW15691   0.464   7.329   2.185
 3615SOL    HW115692   0.497   7.368   2.271
 3615SOL    HW215693   0.540   7.322   2.120
 3616SOL     OW15694   1.400   5.693   2.288
 3616SOL    HW115695   1.376   5.656   2.198
 3616SOL    HW215696   1.499   5.709   2.292
 3617SOL     OW15697   0.249   7.371   3.103
 3617SOL    HW115698   0.306   7.306   3.153
 3617SOL    HW215699   0.233   7.338   3.010
 3618SOL     OW15700   0.940   7.284   2.766
 3618SOL    HW115701   1.020   7.227   2.787
 3618SOL    HW215702   0.891   7.244   2.689
 3619SOL     OW15703   0.382   6.286   2.342
 3619SOL    HW115704   0.427   6.196   2.339
 3619SOL    HW215705   0.288   6.275   2.375
 3620SOL     OW15706   1.547   5.808   3.591
 3620SOL    HW115707   1.542   5.845   3.683
 3620SOL    HW215708   1.475   5.739   3.579
 3621SOL     OW15709   0.614   5.708   1.979
 3621SOL    HW115710   0.712   5.686   1.986
 3621SOL    HW215711   0.583   5.691   1.886
 3622SOL     OW15712   0.781   5.850   3.611
 3622SOL    HW115713   0.848   5.789   3.654
 3622SOL    HW215714   0.708   5.869   3.676
 3623SOL     OW15715   0.888   7.100   3.057
 3623SOL    HW115716   0.865   7.075   2.963
 3623SOL    HW215717   0.949   7.031   3.096
 3624SOL     OW15718   1.351   6.176   3.295
 3624SOL    HW115719   1.379   6.133   3.380
 3624SOL    HW215720   1.376   6.272   3.296
 3625SOL     OW15721   0.803   6.988   2.786
 3625SOL    HW115722   0.893   7.002   2.744
 3625SOL    HW215723   0.732   6.990   2.715
 3626SOL     OW15724   0.922   6.089   2.761
 3626SOL    HW115725   0.897   6.080   2.665
 3626SOL    HW215726   0.970   6.007   2.792
 3627SOL     OW15727   0.539   5.650   2.374
 3627SOL    HW115728   0.458   5.651   2.432
 3627SOL    HW215729   0.542   5.733   2.319
 3628SOL     OW15730   1.434   6.774   1.903
 3628SOL    HW115731   1.466   6.698   1.960
 3628SOL    HW215732   1.342   6.801   1.933
 3629SOL     OW15733   0.935   5.822   2.342
 3629SOL    HW115734   0.887   5.863   2.264
 3629SOL    HW215735   1.034   5.820   2.323
 3630SOL     OW15736   1.076   6.269   3.326
 3630SOL    HW115737   0.996   6.208   3.329
 3630SOL    HW215738   1.157   6.216   3.302
 3631SOL     OW15739   1.227   7.156   2.655
 3631SOL    HW115740   1.248   7.230   2.590
 3631SOL    HW215741   1.295   7.156   2.728
 3632SOL     OW15742   0.459   6.738   2.603
 3632SOL    HW115743   0.388   6.711   2.668
 3632SOL    HW215744   0.433   6.710   2.510
 3633SOL     OW15745   1.271   7.383   2.453
 3633SOL    HW115746   1.315   7.447   2.389
 3633SOL    HW215747   1.221   7.435   2.523
 3634SOL     OW15748   1.032   6.135   1.878
 3634SOL    HW115749   0.991   6.217   1.839
 3634SOL    HW215750   1.096   6.161   1.951
 3635SOL     OW15751   0.078   6.142   3.248
 3635SOL    HW115752   0.170   6.141   3.207
 3635SOL    HW215753   0.072   6.216   3.315
 3636SOL     OW15754   0.561   5.808   3.009
 3636SOL    HW115755   0.599   5.724   3.046
 3636SOL    HW215756   0.473   5.827   3.053
 3637SOL     OW15757   0.866   6.040   2.504
 3637SOL    HW115758   0.834   6.112   2.442
 3637SOL    HW215759   0.890   5.959   2.451
 3638SOL     OW15760   1.017   5.625   2.615
 3638SOL    HW115761   0.945   5.630   2.546
 3638SOL    HW215762   0.993   5.556   2.684
 3639SOL     OW15763   1.429   6.759   2.729
 3639SOL    HW115764   1.374   6.675   2.722
 3639SOL    HW215765   1.455   6.788   2.637
 3640SOL     OW15766   1.466   6.176   2.854
 3640SOL    HW115767   1.436   6.081   2.861
 3640SOL    HW215768   1.539   6.192   2.920
 3641SOL     OW15769   0.488   6.971   2.036
 3641SOL    HW115770   0.401   6.956   2.083
 3641SOL    HW215771   0.471   6.997   1.941
 3642SOL     OW15772   1.664   6.866   2.519
 3642SOL    HW115773   1.763   6.874   2.533
 3642SOL    HW215774   1.619   6.950   2.550
 3643SOL     OW15775   0.527   5.842   2.190
 3643SOL    HW115776   0.554   5.783   2.115
 3643SOL    HW215777   0.527   5.937   2.159
 3644SOL     OW15778   1.754   6.809   3.450
 3644SOL    HW115779   1.845   6.770   3.437
 3644SOL    HW215780   1.762   6.905   3.474
 3645SOL     OW15781   1.064   6.933   3.202
 3645SOL    HW115782   0.984   6.910   3.257
 3645SOL    HW215783   1.147   6.907   3.251
 3646SOL     OW15784   1.592   7.215   3.487
 3646SOL    HW115785   1.619   7.249   3.397
 3646SOL    HW215786   1.671   7.177   3.533
 3647SOL     OW15787   1.111   6.781   2.962
 3647SOL    HW115788   1.071   6.825   3.043
 3647SOL    HW215789   1.070   6.818   2.879
 3648SOL     OW15790   1.638   6.685   2.941
 3648SOL    HW115791   1.643   6.766   3.000
 3648SOL    HW215792   1.552   6.687   2.890
 3649SOL     OW15793   0.915   5.675   3.264
 3649SOL    HW115794   0.940   5.655   3.169
 3649SOL    HW215795   0.987   5.731   3.306
 3650SOL     OW15796   0.980   6.702   3.581
 3650SOL    HW115797   0.881   6.708   3.591
 3650SOL    HW215798   1.003   6.622   3.525
 3651SOL     OW15799   0.705   6.636   2.230
 3651SOL    HW115800   0.691   6.643   2.329
 3651SOL    HW215801   0.789   6.585   2.212
 3652SOL     OW15802   0.410   6.399   3.113
 3652SOL    HW115803   0.496   6.411   3.163
 3652SOL    HW215804   0.368   6.312   3.140
 3653SOL     OW15805   1.274   5.972   3.124
 3653SOL    HW115806   1.295   6.046   3.188
 3653SOL    HW215807   1.185   5.989   3.081
 3654SOL     OW15808   0.064   7.150   3.193
 3654SOL    HW115809   0.018   7.232   3.159
 3654SOL    HW215810   0.162   7.169   3.202
 3655SOL     OW15811   0.367   6.686   2.363
 3655SOL    HW115812   0.360   6.769   2.307
 3655SOL    HW215813   0.371   6.606   2.303
 3656SOL     OW15814   0.566   6.123   2.727
 3656SOL    HW115815   0.578   6.189   2.653
 3656SOL    HW215816   0.612   6.157   2.810
 3657SOL     OW15817   1.252   6.934   2.250
 3657SOL    HW115818   1.302   7.011   2.290
 3657SOL    HW215819   1.157   6.936   2.282
 3658SOL     OW15820   1.272   7.031   3.004
 3658SOL    HW115821   1.319   7.044   3.091
 3658SOL    HW215822   1.206   6.957   3.013
 3659SOL     OW15823   0.354   7.096   3.191
 3659SOL    HW115824   0.333   7.052   3.104
 3659SOL    HW215825   0.451   7.122   3.194
 3660SOL     OW15826   0.402   6.337   3.460
 3660SOL    HW115827   0.470   6.392   3.413
 3660SOL    HW215828   0.442   6.249   3.487
 3661SOL     OW15829   1.587   6.365   3.532
 3661SOL    HW115830   1.495   6.403   3.527
 3661SOL    HW215831   1.647   6.412   3.467
 3662SOL     OW15832   1.013   5.691   3.632
 3662SOL    HW115833   1.019   5.776   3.580
 3662SOL    HW215834   1.045   5.615   3.575
 3663SOL     OW15835   0.504   5.636   3.602
 3663SOL    HW115836   0.462   5.579   3.532
 3663SOL    HW215837   0.438   5.705   3.634
 3664SOL     OW15838   0.573   6.456   2.891
 3664SOL    HW115839   0.617   6.545   2.882
 3664SOL    HW215840   0.510   6.456   2.968
 3665SOL     OW15841   1.360   6.448   2.907
 3665SOL    HW115842   1.285   6.448   2.841
 3665SOL    HW215843   1.397   6.356   2.916
 3666SOL     OW15844   0.307   5.799   3.093
 3666SOL    HW115845   0.284   5.836   3.183
 3666SOL    HW215846   0.277   5.704   3.087
 3667SOL     OW15847   0.037   6.896   3.144
 3667SOL    HW115848   0.090   6.847   3.212
 3667SOL    HW215849   0.059   6.994   3.149
 3668SOL     OW15850   0.732   6.220   2.926
 3668SOL    HW115851   0.791   6.194   2.850
 3668SOL    HW215852   0.704   6.316   2.915
 3669SOL     OW15853   1.728   6.521   3.716
 3669SOL    HW115854   1.682   6.514   3.627
 3669SOL    HW215855   1.666   6.565   3.782
 3670SOL     OW15856   0.307   5.649   2.480
 3670SOL    HW115857   0.296   5.743   2.513
 3670SOL    HW215858   0.302   5.586   2.557
 3671SOL     OW15859   1.622   5.953   2.236
 3671SOL    HW115860   1.624   5.877   2.300
 3671SOL    HW215861   1.574   6.030   2.276
 3672SOL     OW15862   1.023   6.352   2.828
 3672SOL    HW115863   1.038   6.373   2.924
 3672SOL    HW215864   0.993   6.257   2.819
 3673SOL     OW15865   0.980   7.159   3.562
 3673SOL    HW115866   0.960   7.203   3.474
 3673SOL    HW215867   1.019   7.068   3.546
 3674SOL     OW15868   1.859   7.104   3.467
 3674SOL    HW115869   1.873   7.131   3.372
 3674SOL    HW215870   1.942   7.126   3.520
 3675SOL     OW15871   0.350   6.484   3.666
 3675SOL    HW115872   0.426   6.528   3.714
 3675SOL    HW215873   0.385   6.437   3.584
 3676SOL     OW15874   1.540   5.860   1.987
 3676SOL    HW115875   1.479   5.785   2.010
 3676SOL    HW215876   1.562   5.912   2.070
 3677SOL     OW15877   1.303   6.424   1.904
 3677SOL    HW115878   1.337   6.331   1.919
 3677SOL    HW215879   1.321   6.451   1.809
 3678SOL     OW15880   1.068   6.919   2.711
 3678SOL    HW115881   1.075   6.835   2.656
 3678SOL    HW215882   1.130   6.988   2.675
 3679SOL     OW15883   0.319   6.396   2.811
 3679SOL    HW115884   0.412   6.432   2.816
 3679SOL    HW215885   0.313   6.311   2.863
 3680SOL     OW15886   0.339   6.095   2.868
 3680SOL    HW115887   0.287   6.012   2.851
 3680SOL    HW215888   0.416   6.100   2.804
 3681SOL     OW15889   1.138   5.966   3.540
 3681SOL    HW115890   1.093   6.029   3.604
 3681SOL    HW215891   1.231   5.997   3.523
 3682SOL     OW15892   1.160   5.793   3.339
 3682SOL    HW115893   1.160   5.857   3.416
 3682SOL    HW215894   1.188   5.841   3.256
 3683SOL     OW15895   0.008   6.912   2.062
 3683SOL    HW115896  -0.085   6.933   2.031
 3683SOL    HW215897   0.018   6.813   2.075
 3684SOL     OW15898   0.504   7.154   2.772
 3684SOL    HW115899   0.570   7.228   2.781
 3684SOL    HW215900   0.548   7.075   2.730
 3685SOL     OW15901   0.040   6.130   2.976
 3685SOL    HW115902   0.125   6.097   2.935
 3685SOL    HW215903   0.053   6.145   3.074
 3686SOL     OW15904   0.189   6.106   3.584
 3686SOL    HW115905   0.248   6.066   3.514
 3686SOL    HW215906   0.131   6.177   3.543
 3687SOL     OW15907   1.369   6.536   3.522
 3687SOL    HW115908   1.408   6.625   3.542
 3687SOL    HW215909   1.379   6.516   3.425
 3688SOL     OW15910   0.815   6.158   2.187
 3688SOL    HW115911   0.822   6.069   2.141
 3688SOL    HW215912   0.721   6.192   2.179
 3689SOL     OW15913   1.657   6.190   3.068
 3689SOL    HW115914   1.619   6.121   3.130
 3689SOL    HW215915   1.739   6.154   3.024
 3690SOL     OW15916   0.671   6.050   3.131
 3690SOL    HW115917   0.637   5.961   3.101
 3690SOL    HW215918   0.697   6.104   3.051
 3691SOL     OW15919   0.930   7.264   3.327
 3691SOL    HW115920   0.906   7.246   3.232
 3691SOL    HW215921   0.960   7.358   3.337
 3692SOL     OW15922   0.159   6.723   3.328
 3692SOL    HW115923   0.181   6.662   3.404
 3692SOL    HW215924   0.169   6.674   3.242
 3693SOL     OW15925   1.347   6.645   3.096
 3693SOL    HW115926   1.371   6.582   3.022
 3693SOL    HW215927   1.257   6.685   3.078
 3694SOL     OW15928   1.759   7.333   3.016
 3694SOL    HW115929   1.820   7.363   2.943
 3694SOL    HW215930   1.721   7.244   2.994
 3695SOL     OW15931   1.252   7.317   2.990
 3695SOL    HW115932   1.336   7.322   2.936
 3695SOL    HW215933   1.229   7.221   3.008
 3696SOL     OW15934   0.083   6.844   2.884
 3696SOL    HW115935   0.078   6.843   2.984
 3696SOL    HW215936   0.000   6.803   2.846
 3697SOL     OW15937   0.688   7.248   3.578
 3697SOL    HW115938   0.632   7.329   3.587
 3697SOL    HW215939   0.740   7.252   3.492
 3698SOL     OW15940   1.726   5.721   2.385
 3698SOL    HW115941   1.799   5.704   2.318
 3698SOL    HW215942   1.695   5.634   2.423
 3699SOL     OW15943   1.388   7.159   2.339
 3699SOL    HW115944   1.455   7.171   2.265
 3699SOL    HW215945   1.348   7.248   2.362
 3700SOL     OW15946   0.130   7.380   3.713
 3700SOL    HW115947   0.089   7.306   3.766
 3700SOL    HW215948   0.194   7.431   3.771
 3701SOL     OW15949   1.280   6.513   2.534
 3701SOL    HW115950   1.340   6.432   2.536
 3701SOL    HW215951   1.320   6.582   2.474
 3702SOL     OW15952   0.830   6.859   3.284
 3702SOL    HW115953   0.825   6.892   3.379
 3702SOL    HW215954   0.744   6.878   3.238
 3703SOL     OW15955   1.650   7.306   3.256
 3703SOL    HW115956   1.703   7.316   3.172
 3703SOL    HW215957   1.623   7.396   3.290
 3704SOL     OW15958   1.841   5.761   2.825
 3704SOL    HW115959   1.880   5.676   2.789
 3704SOL    HW215960   1.743   5.763   2.806
 3705SOL     OW15961   0.263   5.912   2.582
 3705SOL    HW115962   0.184   5.963   2.548
 3705SOL    HW215963   0.254   5.897   2.680
 3706SOL     OW15964   0.822   6.588   3.234
 3706SOL    HW115965   0.862   6.587   3.142
 3706SOL    HW215966   0.832   6.680   3.274
 3707SOL     OW15967   0.916   6.496   2.153
 3707SOL    HW115968   0.979   6.534   2.085
 3707SOL    HW215969   0.956   6.413   2.192
 3708SOL     OW15970   1.504   7.193   1.906
 3708SOL    HW115971   1.412   7.230   1.913
 3708SOL    HW215972   1.542   7.213   1.816
 3709SOL     OW15973   0.372   6.874   3.352
 3709SOL    HW115974   0.359   6.967   3.318
 3709SOL    HW215975   0.288   6.822   3.339
 3710SOL     OW15976   1.614   6.878   3.151
 3710SOL    HW115977   1.674   6.881   3.231
 3710SOL    HW215978   1.539   6.942   3.164
 3711SOL     OW15979   1.039   6.684   2.558
 3711SOL    HW115980   0.969   6.637   2.612
 3711SOL    HW215981   1.098   6.616   2.515
 3712SOL     OW15982   1.014   5.822   2.833
 3712SOL    HW115983   1.006   5.786   2.740
 3712SOL    HW215984   1.012   5.746   2.898
 3713SOL     OW15985   1.709   5.971   3.243
 3713SOL    HW115986   1.782   6.040   3.247
 3713SOL    HW215987   1.737   5.896   3.184
 3714SOL     OW15988   0.255   6.934   2.152
 3714SOL    HW115989   0.159   6.935   2.125
 3714SOL    HW215990   0.267   6.987   2.236
 3715SOL     OW15991   0.105   6.599   3.588
 3715SOL    HW115992   0.028   6.566   3.642
 3715SOL    HW215993   0.190   6.569   3.630
 3716SOL     OW15994   0.672   5.789   3.351
 3716SOL    HW115995   0.762   5.773   3.311
 3716SOL    HW215996   0.680   5.794   3.450
 3717SOL     OW15997   1.440   6.442   3.260
 3717SOL    HW115998   1.383   6.494   3.197
 3717SOL    HW215999   1.536   6.454   3.236
 3718SOL     OW16000   0.613   6.428   3.293
 3718SOL    HW116001   0.669   6.509   3.276
 3718SOL    HW216002   0.672   6.348   3.296
 3719SOL     OW16003   1.493   7.353   2.821
 3719SOL    HW116004   1.526   7.417   2.752
 3719SOL    HW216005   1.559   7.347   2.896
 3720SOL     OW16006   0.716   6.151   3.570
 3720SOL    HW116007   0.735   6.216   3.644
 3720SOL    HW216008   0.776   6.071   3.579
 3721SOL     OW16009   0.390   7.327   3.422
 3721SOL    HW116010   0.299   7.368   3.420
 3721SOL    HW216011   0.383   7.233   3.454
 3722SOL     OW16012   1.674   6.469   3.116
 3722SOL    HW116013   1.647   6.380   3.079
 3722SOL    HW216014   1.675   6.537   3.043
 3723SOL     OW16015   1.225   5.911   2.311
 3723SOL    HW116016   1.290   5.837   2.300
 3723SOL    HW216017   1.245   5.961   2.395
 3724SOL     OW16018   0.594   6.331   2.514
 3724SOL    HW116019   0.644   6.416   2.495
 3724SOL    HW216020   0.506   6.333   2.466
 3725SOL     OW16021   1.777   5.928   3.504
 3725SOL    HW116022   1.760   5.959   3.410
 3725SOL    HW216023   1.693   5.891   3.542
 3726SOL     OW16024   1.730   6.520   3.379
 3726SOL    HW116025   1.768   6.611   3.394
 3726SOL    HW216026   1.722   6.503   3.280
 3727SOL     OW16027   0.661   7.376   2.815
 3727SOL    HW116028   0.615   7.464   2.802
 3727SOL    HW216029   0.760   7.388   2.808
 3728SOL     OW16030   0.859   6.542   2.723
 3728SOL    HW116031   0.913   6.473   2.771
 3728SOL    HW216032   0.827   6.611   2.789
 3729SOL     OW16033   1.083   6.570   1.949
 3729SOL    HW116034   1.060   6.623   1.867
 3729SOL    HW216035   1.164   6.514   1.930
 3730SOL     OW16036   1.861   7.155   2.713
 3730SOL    HW116037   1.790   7.143   2.643
 3730SOL    HW216038   1.862   7.076   2.773
 3731SOL     OW16039   0.221   6.900   3.706
 3731SOL    HW116040   0.156   6.827   3.685
 3731SOL    HW216041   0.225   6.914   3.804
 3732SOL     OW16042   0.672   6.977   3.486
 3732SOL    HW116043   0.594   6.927   3.524
 3732SOL    HW216044   0.669   7.072   3.517
 3733SOL     OW16045   1.824   5.778   3.089
 3733SOL    HW116046   1.820   5.688   3.133
 3733SOL    HW216047   1.827   5.767   2.990
 3734SOL     OW16048   0.428   6.010   2.382
 3734SOL    HW116049   0.458   5.938   2.320
 3734SOL    HW216050   0.389   5.970   2.465
 3735SOL     OW16051   1.705   7.073   2.966
 3735SOL    HW116052   1.612   7.048   2.939
 3735SOL    HW216053   1.731   7.023   3.048
 3736SOL     OW16054   0.317   6.133   3.142
 3736SOL    HW116055   0.355   6.074   3.214
 3736SOL    HW216056   0.357   6.107   3.054
 3737SOL     OW16057   0.812   7.172   2.549
 3737SOL    HW116058   0.844   7.182   2.455
 3737SOL    HW216059   0.733   7.110   2.551
 3738SOL     OW16060   1.424   5.800   2.974
 3738SOL    HW116061   1.476   5.735   3.029
 3738SOL    HW216062   1.375   5.863   3.035
 3739SOL     OW16063   1.001   5.620   3.016
 3739SOL    HW116064   0.938   5.548   2.985
 3739SOL    HW216065   1.094   5.584   3.016
 3740SOL     OW16066   0.770   6.916   2.163
 3740SOL    HW116067   0.724   6.829   2.180
 3740SOL    HW216068   0.861   6.913   2.204
 3741SOL     OW16069   0.618   7.153   3.146
 3741SOL    HW116070   0.613   7.235   3.203
 3741SOL    HW216071   0.707   7.150   3.101
 3742SOL     OW16072   1.352   5.638   2.030
 3742SOL    HW116073   1.387   5.597   1.946
 3742SOL    HW216074   1.262   5.600   2.050
 3743SOL     OW16075   1.300   6.039   2.553
 3743SOL    HW116076   1.241   6.119   2.557
 3743SOL    HW216077   1.315   6.004   2.646
 3744SOL     OW16078   1.593   5.807   2.744
 3744SOL    HW116079   1.509   5.806   2.798
 3744SOL    HW216080   1.595   5.890   2.688
 3745SOL     OW16081   0.039   6.663   2.162
 3745SOL    HW116082   0.138   6.652   2.153
 3745SOL    HW216083  -0.001   6.577   2.194
 3746SOL     OW16084   0.230   6.214   3.837
 3746SOL    HW116085   0.137   6.212   3.874
 3746SOL    HW216086   0.231   6.175   3.745
 3747SOL     OW16087   0.225   5.861   4.720
 3747SOL    HW116088   0.260   5.844   4.812
 3747SOL    HW216089   0.137   5.816   4.708
 3748SOL     OW16090   0.019   5.954   4.371
 3748SOL    HW116091  -0.063   5.997   4.410
 3748SOL    HW216092  -0.009   5.881   4.308
 3749SOL     OW16093   0.569   6.861   4.889
 3749SOL    HW116094   0.476   6.854   4.852
 3749SOL    HW216095   0.580   6.950   4.933
 3750SOL     OW16096   1.555   7.097   4.427
 3750SOL    HW116097   1.498   7.081   4.508
 3750SOL    HW216098   1.496   7.107   4.347
 3751SOL     OW16099   1.135   6.289   4.441
 3751SOL    HW116100   1.192   6.367   4.416
 3751SOL    HW216101   1.075   6.315   4.517
 3752SOL     OW16102   1.755   6.193   3.955
 3752SOL    HW116103   1.743   6.180   3.856
 3752SOL    HW216104   1.725   6.112   4.004
 3753SOL     OW16105   0.768   6.730   4.747
 3753SOL    HW116106   0.690   6.747   4.807
 3753SOL    HW216107   0.802   6.817   4.711
 3754SOL     OW16108   0.850   6.384   5.547
 3754SOL    HW116109   0.846   6.460   5.612
 3754SOL    HW216110   0.872   6.420   5.456
 3755SOL     OW16111   0.685   6.598   4.389
 3755SOL    HW116112   0.754   6.582   4.459
 3755SOL    HW216113   0.612   6.655   4.427
 3756SOL     OW16114   0.686   6.747   5.527
 3756SOL    HW116115   0.746   6.826   5.541
 3756SOL    HW216116   0.600   6.778   5.486
 3757SOL     OW16117   0.335   7.021   4.785
 3757SOL    HW116118   0.257   6.990   4.732
 3757SOL    HW216119   0.393   7.079   4.728
 3758SOL     OW16120   1.460   7.091   5.063
 3758SOL    HW116121   1.484   7.185   5.089
 3758SOL    HW216122   1.444   7.037   5.145
 3759SOL     OW16123   0.438   5.978   5.223
 3759SOL    HW116124   0.520   5.922   5.232
 3759SOL    HW216125   0.357   5.920   5.227
 3760SOL     OW16126   1.603   6.033   4.461
 3760SOL    HW116127   1.529   6.079   4.411
 3760SOL    HW216128   1.654   6.101   4.514
 3761SOL     OW16129   0.231   7.299   4.207
 3761SOL    HW116130   0.265   7.376   4.261
 3761SOL    HW216131   0.275   7.299   4.117
 3762SOL     OW16132   1.127   6.927   5.414
 3762SOL    HW116133   1.174   6.927   5.502
 3762SOL    HW216134   1.079   6.840   5.403
 3763SOL     OW16135   0.230   7.020   4.262
 3763SOL    HW116136   0.204   7.116   4.262
 3763SOL    HW216137   0.159   6.966   4.307
 3764SOL     OW16138   0.240   6.677   4.610
 3764SOL    HW116139   0.254   6.593   4.662
 3764SOL    HW216140   0.185   6.741   4.665
 3765SOL     OW16141   0.620   7.372   5.163
 3765SOL    HW116142   0.528   7.355   5.198
 3765SOL    HW216143   0.648   7.464   5.189
 3766SOL     OW16144   0.606   6.550   3.847
 3766SOL    HW116145   0.613   6.634   3.793
 3766SOL    HW216146   0.652   6.563   3.935
 3767SOL     OW16147   0.122   6.229   4.287
 3767SOL    HW116148   0.077   6.141   4.304
 3767SOL    HW216149   0.121   6.283   4.371
 3768SOL     OW16150   1.842   7.353   4.083
 3768SOL    HW116151   1.896   7.324   4.163
 3768SOL    HW216152   1.872   7.443   4.054
 3769SOL     OW16153   0.027   7.182   3.841
 3769SOL    HW116154   0.008   7.086   3.862
 3769SOL    HW216155  -0.006   7.240   3.916
 3770SOL     OW16156   1.689   6.508   4.336
 3770SOL    HW116157   1.784   6.479   4.344
 3770SOL    HW216158   1.681   6.573   4.261
 3771SOL     OW16159   1.641   6.694   4.156
 3771SOL    HW116160   1.727   6.696   4.104
 3771SOL    HW216161   1.655   6.741   4.244
 3772SOL     OW16162   0.613   6.951   4.450
 3772SOL    HW116163   0.564   6.864   4.459
 3772SOL    HW216164   0.590   6.994   4.363
 3773SOL     OW16165   1.293   6.814   5.147
 3773SOL    HW116166   1.330   6.741   5.089
 3773SOL    HW216167   1.345   6.819   5.232
 3774SOL     OW16168   0.809   5.590   4.226
 3774SOL    HW116169   0.849   5.681   4.217
 3774SOL    HW216170   0.709   5.598   4.232
 3775SOL     OW16171   0.197   6.562   4.988
 3775SOL    HW116172   0.286   6.517   4.974
 3775SOL    HW216173   0.124   6.497   4.969
 3776SOL     OW16174   1.525   6.585   3.914
 3776SOL    HW116175   1.462   6.509   3.927
 3776SOL    HW216176   1.573   6.603   4.000
 3777SOL     OW16177   0.317   5.837   5.525
 3777SOL    HW116178   0.388   5.908   5.531
 3777SOL    HW216179   0.229   5.876   5.553
 3778SOL     OW16180   1.466   7.003   4.677
 3778SOL    HW116181   1.407   7.009   4.757
 3778SOL    HW216182   1.451   6.915   4.631
 3779SOL     OW16183   1.667   7.300   4.296
 3779SOL    HW116184   1.626   7.277   4.208
 3779SOL    HW216185   1.649   7.226   4.361
 3780SOL     OW16186   1.281   5.931   4.668
 3780SOL    HW116187   1.195   5.881   4.655
 3780SOL    HW216188   1.343   5.877   4.724
 3781SOL     OW16189   1.576   7.248   4.031
 3781SOL    HW116190   1.665   7.294   4.034
 3781SOL    HW216191   1.555   7.224   3.936
 3782SOL     OW16192   0.807   6.191   5.189
 3782SOL    HW116193   0.760   6.188   5.278
 3782SOL    HW216194   0.756   6.136   5.123
 3783SOL     OW16195   1.394   6.055   5.398
 3783SOL    HW116196   1.374   6.098   5.486
 3783SOL    HW216197   1.472   5.993   5.407
 3784SOL     OW16198   0.973   6.476   5.296
 3784SOL    HW116199   1.019   6.392   5.267
 3784SOL    HW216200   0.917   6.510   5.221
 3785SOL     OW16201   0.991   5.996   4.966
 3785SOL    HW116202   0.914   6.030   5.020
 3785SOL    HW216203   0.957   5.945   4.887
 3786SOL     OW16204   0.076   6.397   4.513
 3786SOL    HW116205   0.175   6.385   4.522
 3786SOL    HW216206   0.052   6.492   4.534
 3787SOL     OW16207   0.130   7.407   5.295
 3787SOL    HW116208   0.120   7.392   5.394
 3787SOL    HW216209   0.044   7.443   5.259
 3788SOL     OW16210   0.865   5.934   3.919
 3788SOL    HW116211   0.924   5.997   3.870
 3788SOL    HW216212   0.884   5.840   3.890
 3789SOL     OW16213   1.719   6.171   5.555
 3789SOL    HW116214   1.693   6.260   5.519
 3789SOL    HW216215   1.717   6.103   5.482
 3790SOL     OW16216   1.362   6.730   4.269
 3790SOL    HW116217   1.445   6.701   4.221
 3790SOL    HW216218   1.313   6.797   4.213
 3791SOL     OW16219   0.550   5.782   4.609
 3791SOL    HW116220   0.545   5.777   4.709
 3791SOL    HW216221   0.552   5.878   4.580
 3792SOL     OW16222   1.008   7.042   4.201
 3792SOL    HW116223   0.962   7.114   4.149
 3792SOL    HW216224   1.004   7.062   4.299
 3793SOL     OW16225   1.795   6.652   4.597
 3793SOL    HW116226   1.733   6.637   4.521
 3793SOL    HW216227   1.743   6.663   4.682
 3794SOL     OW16228   1.227   7.136   5.230
 3794SOL    HW116229   1.233   7.059   5.294
 3794SOL    HW216230   1.175   7.110   5.150
 3795SOL     OW16231   0.321   6.529   3.966
 3795SOL    HW116232   0.403   6.568   3.924
 3795SOL    HW216233   0.294   6.447   3.917
 3796SOL     OW16234   1.458   6.321   4.452
 3796SOL    HW116235   1.453   6.256   4.527
 3796SOL    HW216236   1.538   6.380   4.465
 3797SOL     OW16237   0.461   6.852   5.451
 3797SOL    HW116238   0.411   6.853   5.365
 3797SOL    HW216239   0.398   6.834   5.527
 3798SOL     OW16240   1.111   7.362   3.961
 3798SOL    HW116241   1.051   7.300   4.011
 3798SOL    HW216242   1.142   7.318   3.876
 3799SOL     OW16243   0.202   5.871   5.222
 3799SOL    HW116244   0.122   5.931   5.209
 3799SOL    HW216245   0.192   5.822   5.308
 3800SOL     OW16246   1.632   6.963   3.805
 3800SOL    HW116247   1.600   7.057   3.795
 3800SOL    HW216248   1.556   6.900   3.793
 3801SOL     OW16249   0.464   7.329   4.047
 3801SOL    HW116250   0.497   7.368   4.133
 3801SOL    HW216251   0.540   7.322   3.982
 3802SOL     OW16252   1.400   5.693   4.150
 3802SOL    HW116253   1.376   5.656   4.060
 3802SOL    HW216254   1.499   5.709   4.154
 3803SOL     OW16255   0.249   7.371   4.965
 3803SOL    HW116256   0.306   7.306   5.015
 3803SOL    HW216257   0.233   7.338   4.872
 3804SOL     OW16258   0.940   7.284   4.628
 3804SOL    HW116259   1.020   7.227   4.649
 3804SOL    HW216260   0.891   7.244   4.551
 3805SOL     OW16261   0.382   6.286   4.204
 3805SOL    HW116262   0.427   6.196   4.201
 3805SOL    HW216263   0.288   6.275   4.237
 3806SOL     OW16264   1.547   5.808   5.453
 3806SOL    HW116265   1.542   5.845   5.545
 3806SOL    HW216266   1.475   5.739   5.441
 3807SOL     OW16267   0.614   5.708   3.841
 3807SOL    HW116268   0.712   5.686   3.848
 3807SOL    HW216269   0.583   5.691   3.748
 3808SOL     OW16270   0.781   5.850   5.473
 3808SOL    HW116271   0.848   5.789   5.516
 3808SOL    HW216272   0.708   5.869   5.538
 3809SOL     OW16273   0.888   7.100   4.919
 3809SOL    HW116274   0.865   7.075   4.825
 3809SOL    HW216275   0.949   7.031   4.958
 3810SOL     OW16276   1.351   6.176   5.157
 3810SOL    HW116277   1.379   6.133   5.242
 3810SOL    HW216278   1.376   6.272   5.158
 3811SOL     OW16279   0.803   6.988   4.648
 3811SOL    HW116280   0.893   7.002   4.606
 3811SOL    HW216281   0.732   6.990   4.577
 3812SOL     OW16282   0.922   6.089   4.623
 3812SOL    HW116283   0.897   6.080   4.527
 3812SOL    HW216284   0.970   6.007   4.654
 3813SOL     OW16285   0.539   5.650   4.236
 3813SOL    HW116286   0.458   5.651   4.294
 3813SOL    HW216287   0.542   5.733   4.181
 3814SOL     OW16288   1.434   6.774   3.765
 3814SOL    HW116289   1.466   6.698   3.822
 3814SOL    HW216290   1.342   6.801   3.795
 3815SOL     OW16291   0.297   5.621   3.895
 3815SOL    HW116292   0.346   5.705   3.874
 3815SOL    HW216293   0.359   5.556   3.940
 3816SOL     OW16294   0.935   5.822   4.204
 3816SOL    HW116295   0.887   5.863   4.126
 3816SOL    HW216296   1.034   5.820   4.185
 3817SOL     OW16297   1.076   6.269   5.188
 3817SOL    HW116298   0.996   6.208   5.191
 3817SOL    HW216299   1.157   6.216   5.164
 3818SOL     OW16300   1.227   7.156   4.517
 3818SOL    HW116301   1.248   7.230   4.452
 3818SOL    HW216302   1.295   7.156   4.590
 3819SOL     OW16303   0.459   6.738   4.465
 3819SOL    HW116304   0.388   6.711   4.530
 3819SOL    HW216305   0.433   6.710   4.372
 3820SOL     OW16306   1.271   7.383   4.315
 3820SOL    HW116307   1.315   7.447   4.251
 3820SOL    HW216308   1.221   7.435   4.385
 3821SOL     OW16309   1.032   6.135   3.740
 3821SOL    HW116310   0.991   6.217   3.701
 3821SOL    HW216311   1.096   6.161   3.813
 3822SOL     OW16312   0.078   6.142   5.110
 3822SOL    HW116313   0.170   6.141   5.069
 3822SOL    HW216314   0.072   6.216   5.177
 3823SOL     OW16315   0.561   5.808   4.871
 3823SOL    HW116316   0.599   5.724   4.908
 3823SOL    HW216317   0.473   5.827   4.915
 3824SOL     OW16318   1.017   5.625   4.477
 3824SOL    HW116319   0.945   5.630   4.408
 3824SOL    HW216320   0.993   5.556   4.546
 3825SOL     OW16321   1.429   6.759   4.591
 3825SOL    HW116322   1.374   6.675   4.584
 3825SOL    HW216323   1.455   6.788   4.499
 3826SOL     OW16324   1.466   6.176   4.716
 3826SOL    HW116325   1.436   6.081   4.723
 3826SOL    HW216326   1.539   6.192   4.782
 3827SOL     OW16327   1.857   6.419   4.101
 3827SOL    HW116328   1.899   6.355   4.165
 3827SOL    HW216329   1.819   6.368   4.023
 3828SOL     OW16330   0.488   6.971   3.898
 3828SOL    HW116331   0.401   6.956   3.945
 3828SOL    HW216332   0.471   6.997   3.803
 3829SOL     OW16333   1.664   6.866   4.381
 3829SOL    HW116334   1.763   6.874   4.395
 3829SOL    HW216335   1.619   6.950   4.412
 3830SOL     OW16336   1.390   6.161   3.802
 3830SOL    HW116337   1.336   6.140   3.883
 3830SOL    HW216338   1.481   6.120   3.811
 3831SOL     OW16339   1.754   6.809   5.312
 3831SOL    HW116340   1.845   6.770   5.299
 3831SOL    HW216341   1.762   6.905   5.336
 3832SOL     OW16342   1.064   6.933   5.064
 3832SOL    HW116343   0.984   6.910   5.119
 3832SOL    HW216344   1.147   6.907   5.113
 3833SOL     OW16345   1.592   7.215   5.349
 3833SOL    HW116346   1.619   7.249   5.259
 3833SOL    HW216347   1.671   7.177   5.395
 3834SOL     OW16348   1.111   6.781   4.824
 3834SOL    HW116349   1.071   6.825   4.905
 3834SOL    HW216350   1.070   6.818   4.741
 3835SOL     OW16351   1.638   6.685   4.803
 3835SOL    HW116352   1.643   6.766   4.862
 3835SOL    HW216353   1.552   6.687   4.752
 3836SOL     OW16354   0.980   6.702   5.443
 3836SOL    HW116355   0.881   6.708   5.453
 3836SOL    HW216356   1.003   6.622   5.387
 3837SOL     OW16357   0.705   6.636   4.092
 3837SOL    HW116358   0.691   6.643   4.191
 3837SOL    HW216359   0.789   6.585   4.074
 3838SOL     OW16360   0.410   6.399   4.975
 3838SOL    HW116361   0.496   6.411   5.025
 3838SOL    HW216362   0.368   6.312   5.002
 3839SOL     OW16363   1.274   5.972   4.986
 3839SOL    HW116364   1.295   6.046   5.050
 3839SOL    HW216365   1.185   5.989   4.943
 3840SOL     OW16366   0.064   7.150   5.055
 3840SOL    HW116367   0.018   7.232   5.021
 3840SOL    HW216368   0.162   7.169   5.064
 3841SOL     OW16369   0.367   6.686   4.225
 3841SOL    HW116370   0.360   6.769   4.169
 3841SOL    HW216371   0.371   6.606   4.165
 3842SOL     OW16372   0.566   6.123   4.589
 3842SOL    HW116373   0.578   6.189   4.515
 3842SOL    HW216374   0.612   6.157   4.672
 3843SOL     OW16375   1.252   6.934   4.112
 3843SOL    HW116376   1.302   7.011   4.152
 3843SOL    HW216377   1.157   6.936   4.144
 3844SOL     OW16378   1.272   7.031   4.866
 3844SOL    HW116379   1.319   7.044   4.953
 3844SOL    HW216380   1.206   6.957   4.875
 3845SOL     OW16381   1.582   6.225   4.196
 3845SOL    HW116382   1.551   6.286   4.269
 3845SOL    HW216383   1.632   6.277   4.127
 3846SOL     OW16384   0.354   7.096   5.053
 3846SOL    HW116385   0.333   7.052   4.966
 3846SOL    HW216386   0.451   7.122   5.056
 3847SOL     OW16387   0.402   6.337   5.322
 3847SOL    HW116388   0.470   6.392   5.275
 3847SOL    HW216389   0.442   6.249   5.349
 3848SOL     OW16390   1.587   6.365   5.394
 3848SOL    HW116391   1.495   6.403   5.389
 3848SOL    HW216392   1.647   6.412   5.329
 3849SOL     OW16393   1.013   5.691   5.494
 3849SOL    HW116394   1.019   5.776   5.442
 3849SOL    HW216395   1.045   5.615   5.437
 3850SOL     OW16396   0.504   5.636   5.464
 3850SOL    HW116397   0.462   5.579   5.394
 3850SOL    HW216398   0.438   5.705   5.496
 3851SOL     OW16399   0.573   6.456   4.753
 3851SOL    HW116400   0.617   6.545   4.744
 3851SOL    HW216401   0.510   6.456   4.830
 3852SOL     OW16402   1.360   6.448   4.769
 3852SOL    HW116403   1.285   6.448   4.703
 3852SOL    HW216404   1.397   6.356   4.778
 3853SOL     OW16405   1.209   6.111   3.999
 3853SOL    HW116406   1.222   6.027   4.053
 3853SOL    HW216407   1.180   6.185   4.059
 3854SOL     OW16408   0.307   5.799   4.955
 3854SOL    HW116409   0.284   5.836   5.045
 3854SOL    HW216410   0.277   5.704   4.949
 3855SOL     OW16411   0.037   6.896   5.006
 3855SOL    HW116412   0.090   6.847   5.074
 3855SOL    HW216413   0.059   6.994   5.011
 3856SOL     OW16414   0.732   6.220   4.788
 3856SOL    HW116415   0.791   6.194   4.712
 3856SOL    HW216416   0.704   6.316   4.777
 3857SOL     OW16417   1.728   6.521   5.578
 3857SOL    HW116418   1.682   6.514   5.489
 3857SOL    HW216419   1.666   6.565   5.644
 3858SOL     OW16420   0.307   5.649   4.342
 3858SOL    HW116421   0.296   5.743   4.375
 3858SOL    HW216422   0.302   5.586   4.419
 3859SOL     OW16423   1.622   5.953   4.098
 3859SOL    HW116424   1.624   5.877   4.162
 3859SOL    HW216425   1.574   6.030   4.138
 3860SOL     OW16426   1.023   6.352   4.690
 3860SOL    HW116427   1.038   6.373   4.786
 3860SOL    HW216428   0.993   6.257   4.681
 3861SOL     OW16429   1.859   7.104   5.329
 3861SOL    HW116430   1.873   7.131   5.234
 3861SOL    HW216431   1.942   7.126   5.382
 3862SOL     OW16432   0.350   6.484   5.528
 3862SOL    HW116433   0.426   6.528   5.576
 3862SOL    HW216434   0.385   6.437   5.446
 3863SOL     OW16435   1.540   5.860   3.849
 3863SOL    HW116436   1.479   5.785   3.872
 3863SOL    HW216437   1.562   5.912   3.932
 3864SOL     OW16438   1.303   6.424   3.766
 3864SOL    HW116439   1.337   6.331   3.781
 3864SOL    HW216440   1.321   6.451   3.671
 3865SOL     OW16441   1.068   6.919   4.573
 3865SOL    HW116442   1.075   6.835   4.518
 3865SOL    HW216443   1.130   6.988   4.537
 3866SOL     OW16444   0.319   6.396   4.673
 3866SOL    HW116445   0.412   6.432   4.678
 3866SOL    HW216446   0.313   6.311   4.725
 3867SOL     OW16447   0.339   6.095   4.730
 3867SOL    HW116448   0.287   6.012   4.713
 3867SOL    HW216449   0.416   6.100   4.666
 3868SOL     OW16450   1.138   5.966   5.402
 3868SOL    HW116451   1.093   6.029   5.466
 3868SOL    HW216452   1.231   5.997   5.385
 3869SOL     OW16453   0.008   6.912   3.924
 3869SOL    HW116454  -0.085   6.933   3.893
 3869SOL    HW216455   0.018   6.813   3.937
 3870SOL     OW16456   0.088   7.387   4.651
 3870SOL    HW116457   0.046   7.301   4.624
 3870SOL    HW216458   0.182   7.390   4.617
 3871SOL     OW16459   0.504   7.154   4.634
 3871SOL    HW116460   0.570   7.228   4.643
 3871SOL    HW216461   0.548   7.075   4.592
 3872SOL     OW16462   1.002   6.382   4.962
 3872SOL    HW116463   1.043   6.350   5.048
 3872SOL    HW216464   0.906   6.355   4.959
 3873SOL     OW16465   0.040   6.130   4.838
 3873SOL    HW116466   0.125   6.097   4.797
 3873SOL    HW216467   0.053   6.145   4.936
 3874SOL     OW16468   0.189   6.106   5.446
 3874SOL    HW116469   0.248   6.066   5.376
 3874SOL    HW216470   0.131   6.177   5.405
 3875SOL     OW16471   1.369   6.536   5.384
 3875SOL    HW116472   1.408   6.625   5.404
 3875SOL    HW216473   1.379   6.516   5.287
 3876SOL     OW16474   1.657   6.190   4.930
 3876SOL    HW116475   1.619   6.121   4.992
 3876SOL    HW216476   1.739   6.154   4.886
 3877SOL     OW16477   0.252   7.150   5.468
 3877SOL    HW116478   0.222   7.207   5.544
 3877SOL    HW216479   0.245   7.053   5.494
 3878SOL     OW16480   0.671   6.050   4.993
 3878SOL    HW116481   0.637   5.961   4.963
 3878SOL    HW216482   0.697   6.104   4.913
 3879SOL     OW16483   0.930   7.264   5.189
 3879SOL    HW116484   0.906   7.246   5.094
 3879SOL    HW216485   0.960   7.358   5.199
 3880SOL     OW16486   0.159   6.723   5.190
 3880SOL    HW116487   0.181   6.662   5.266
 3880SOL    HW216488   0.169   6.674   5.104
 3881SOL     OW16489   1.347   6.645   4.958
 3881SOL    HW116490   1.371   6.582   4.884
 3881SOL    HW216491   1.257   6.685   4.940
 3882SOL     OW16492   1.302   6.441   4.033
 3882SOL    HW116493   1.216   6.410   4.075
 3882SOL    HW216494   1.298   6.427   3.934
 3883SOL     OW16495   1.759   7.333   4.878
 3883SOL    HW116496   1.820   7.363   4.805
 3883SOL    HW216497   1.721   7.244   4.856
 3884SOL     OW16498   1.252   7.317   4.852
 3884SOL    HW116499   1.336   7.322   4.798
 3884SOL    HW216500   1.229   7.221   4.870
 3885SOL     OW16501   0.083   6.844   4.746
 3885SOL    HW116502   0.078   6.843   4.846
 3885SOL    HW216503   0.000   6.803   4.708
 3886SOL     OW16504   0.688   7.248   5.440
 3886SOL    HW116505   0.632   7.329   5.449
 3886SOL    HW216506   0.740   7.252   5.354
 3887SOL     OW16507   1.726   5.721   4.247
 3887SOL    HW116508   1.799   5.704   4.180
 3887SOL    HW216509   1.695   5.634   4.285
 3888SOL     OW16510   1.388   7.159   4.201
 3888SOL    HW116511   1.455   7.171   4.127
 3888SOL    HW216512   1.348   7.248   4.224
 3889SOL     OW16513   0.130   7.380   5.575
 3889SOL    HW116514   0.089   7.306   5.628
 3889SOL    HW216515   0.194   7.431   5.633
 3890SOL     OW16516   1.280   6.513   4.396
 3890SOL    HW116517   1.340   6.432   4.398
 3890SOL    HW216518   1.320   6.582   4.336
 3891SOL     OW16519   0.830   6.859   5.146
 3891SOL    HW116520   0.825   6.892   5.241
 3891SOL    HW216521   0.744   6.878   5.100
 3892SOL     OW16522   0.672   7.202   3.878
 3892SOL    HW116523   0.681   7.212   3.779
 3892SOL    HW216524   0.632   7.113   3.899
 3893SOL     OW16525   1.650   7.306   5.118
 3893SOL    HW116526   1.703   7.316   5.034
 3893SOL    HW216527   1.623   7.396   5.152
 3894SOL     OW16528   1.841   5.761   4.687
 3894SOL    HW116529   1.880   5.676   4.651
 3894SOL    HW216530   1.743   5.763   4.668
 3895SOL     OW16531   0.263   5.912   4.444
 3895SOL    HW116532   0.184   5.963   4.410
 3895SOL    HW216533   0.254   5.897   4.542
 3896SOL     OW16534   1.194   7.198   3.755
 3896SOL    HW116535   1.200   7.105   3.792
 3896SOL    HW216536   1.135   7.198   3.675
 3897SOL     OW16537   0.822   6.588   5.096
 3897SOL    HW116538   0.862   6.587   5.004
 3897SOL    HW216539   0.832   6.680   5.136
 3898SOL     OW16540   0.916   6.496   4.015
 3898SOL    HW116541   0.979   6.534   3.947
 3898SOL    HW216542   0.956   6.413   4.054
 3899SOL     OW16543   1.504   7.193   3.768
 3899SOL    HW116544   1.412   7.230   3.775
 3899SOL    HW216545   1.542   7.213   3.678
 3900SOL     OW16546   0.372   6.874   5.214
 3900SOL    HW116547   0.359   6.967   5.180
 3900SOL    HW216548   0.288   6.822   5.201
 3901SOL     OW16549   1.614   6.878   5.013
 3901SOL    HW116550   1.674   6.881   5.093
 3901SOL    HW216551   1.539   6.942   5.026
 3902SOL     OW16552   1.039   6.684   4.420
 3902SOL    HW116553   0.969   6.637   4.474
 3902SOL    HW216554   1.098   6.616   4.377
 3903SOL     OW16555   1.014   5.822   4.695
 3903SOL    HW116556   1.006   5.786   4.602
 3903SOL    HW216557   1.012   5.746   4.760
 3904SOL     OW16558   0.590   7.073   4.215
 3904SOL    HW116559   0.632   7.015   4.145
 3904SOL    HW216560   0.546   7.152   4.171
 3905SOL     OW16561   1.709   5.971   5.105
 3905SOL    HW116562   1.782   6.040   5.109
 3905SOL    HW216563   1.737   5.896   5.046
 3906SOL     OW16564   0.255   6.934   4.014
 3906SOL    HW116565   0.159   6.935   3.987
 3906SOL    HW216566   0.267   6.987   4.098
 3907SOL     OW16567   0.105   6.599   5.450
 3907SOL    HW116568   0.028   6.566   5.504
 3907SOL    HW216569   0.190   6.569   5.492
 3908SOL     OW16570   0.672   5.789   5.213
 3908SOL    HW116571   0.762   5.773   5.173
 3908SOL    HW216572   0.680   5.794   5.312
 3909SOL     OW16573   0.075   5.931   3.757
 3909SOL    HW116574  -0.017   5.903   3.728
 3909SOL    HW216575   0.106   6.008   3.701
 3910SOL     OW16576   1.440   6.442   5.122
 3910SOL    HW116577   1.383   6.494   5.059
 3910SOL    HW216578   1.536   6.454   5.098
 3911SOL     OW16579   0.072   5.752   4.042
 3911SOL    HW116580   0.055   5.835   3.988
 3911SOL    HW216581   0.162   5.715   4.020
 3912SOL     OW16582   1.183   6.921   3.843
 3912SOL    HW116583   1.084   6.910   3.845
 3912SOL    HW216584   1.217   6.936   3.936
 3913SOL     OW16585   0.613   6.428   5.155
 3913SOL    HW116586   0.669   6.509   5.138
 3913SOL    HW216587   0.672   6.348   5.158
 3914SOL     OW16588   1.493   7.353   4.683
 3914SOL    HW116589   1.526   7.417   4.614
 3914SOL    HW216590   1.559   7.347   4.758
 3915SOL     OW16591   0.716   6.151   5.432
 3915SOL    HW116592   0.735   6.216   5.506
 3915SOL    HW216593   0.776   6.071   5.441
 3916SOL     OW16594   1.450   6.806   5.357
 3916SOL    HW116595   1.441   6.796   5.456
 3916SOL    HW216596   1.546   6.799   5.331
 3917SOL     OW16597   0.390   7.327   5.284
 3917SOL    HW116598   0.299   7.368   5.282
 3917SOL    HW216599   0.383   7.233   5.316
 3918SOL     OW16600   1.674   6.469   4.978
 3918SOL    HW116601   1.647   6.380   4.941
 3918SOL    HW216602   1.675   6.537   4.905
 3919SOL     OW16603   1.225   5.911   4.173
 3919SOL    HW116604   1.290   5.837   4.162
 3919SOL    HW216605   1.245   5.961   4.257
 3920SOL     OW16606   1.777   5.928   5.366
 3920SOL    HW116607   1.760   5.959   5.272
 3920SOL    HW216608   1.693   5.891   5.404
 3921SOL     OW16609   1.730   6.520   5.241
 3921SOL    HW116610   1.768   6.611   5.256
 3921SOL    HW216611   1.722   6.503   5.142
 3922SOL     OW16612   0.859   6.960   3.740
 3922SOL    HW116613   0.813   6.975   3.828
 3922SOL    HW216614   0.903   7.045   3.710
 3923SOL     OW16615   0.661   7.376   4.677
 3923SOL    HW116616   0.615   7.464   4.664
 3923SOL    HW216617   0.760   7.388   4.670
 3924SOL     OW16618   0.859   6.542   4.585
 3924SOL    HW116619   0.913   6.473   4.633
 3924SOL    HW216620   0.827   6.611   4.651
 3925SOL     OW16621   1.083   6.570   3.811
 3925SOL    HW116622   1.060   6.623   3.729
 3925SOL    HW216623   1.164   6.514   3.792
 3926SOL     OW16624   1.861   7.155   4.575
 3926SOL    HW116625   1.790   7.143   4.505
 3926SOL    HW216626   1.862   7.076   4.635
 3927SOL     OW16627   0.221   6.900   5.568
 3927SOL    HW116628   0.156   6.827   5.547
 3927SOL    HW216629   0.225   6.914   5.666
 3928SOL     OW16630   0.079   6.826   4.377
 3928SOL    HW116631   0.078   6.779   4.465
 3928SOL    HW216632   0.161   6.798   4.326
 3929SOL     OW16633   0.672   6.977   5.348
 3929SOL    HW116634   0.594   6.927   5.386
 3929SOL    HW216635   0.669   7.072   5.379
 3930SOL     OW16636   1.824   5.778   4.951
 3930SOL    HW116637   1.820   5.688   4.995
 3930SOL    HW216638   1.827   5.767   4.852
 3931SOL     OW16639   0.428   6.010   4.244
 3931SOL    HW116640   0.458   5.938   4.182
 3931SOL    HW216641   0.389   5.970   4.327
 3932SOL     OW16642   1.705   7.073   4.828
 3932SOL    HW116643   1.612   7.048   4.801
 3932SOL    HW216644   1.731   7.023   4.910
 3933SOL     OW16645   0.317   6.133   5.004
 3933SOL    HW116646   0.355   6.074   5.076
 3933SOL    HW216647   0.357   6.107   4.916
 3934SOL     OW16648   0.812   7.172   4.411
 3934SOL    HW116649   0.844   7.182   4.317
 3934SOL    HW216650   0.733   7.110   4.413
 3935SOL     OW16651   1.001   5.620   4.878
 3935SOL    HW116652   0.938   5.548   4.847
 3935SOL    HW216653   1.094   5.584   4.878
 3936SOL     OW16654   0.770   6.916   4.025
 3936SOL    HW116655   0.724   6.829   4.042
 3936SOL    HW216656   0.861   6.913   4.066
 3937SOL     OW16657   0.618   7.153   5.008
 3937SOL    HW116658   0.613   7.235   5.065
 3937SOL    HW216659   0.707   7.150   4.963
 3938SOL     OW16660   1.352   5.638   3.892
 3938SOL    HW116661   1.387   5.597   3.808
 3938SOL    HW216662   1.262   5.600   3.912
 3939SOL     OW16663   1.300   6.039   4.415
 3939SOL    HW116664   1.241   6.119   4.419
 3939SOL    HW216665   1.315   6.004   4.508
 3940SOL     OW16666   1.593   5.807   4.606
 3940SOL    HW116667   1.509   5.806   4.660
 3940SOL    HW216668   1.595   5.890   4.550
 3941SOL     OW16669   0.039   6.663   4.024
 3941SOL    HW116670   0.138   6.652   4.015
 3941SOL    HW216671  -0.001   6.577   4.056
 3942SOL     OW16672   0.875   7.232   4.061
 3942SOL    HW116673   0.798   7.197   4.007
 3942SOL    HW216674   0.843   7.303   4.123
 3943SOL     OW16675   0.230   6.214   5.699
 3943SOL    HW116676   0.137   6.212   5.736
 3943SOL    HW216677   0.231   6.175   5.607
 3944SOL     OW16678   0.225   5.861   6.582
 3944SOL    HW116679   0.260   5.844   6.674
 3944SOL    HW216680   0.137   5.816   6.570
 3945SOL     OW16681   0.019   5.954   6.233
 3945SOL    HW116682  -0.063   5.997   6.272
 3945SOL    HW216683  -0.009   5.881   6.170
 3946SOL     OW16684   0.569   6.861   6.751
 3946SOL    HW116685   0.476   6.854   6.714
 3946SOL    HW216686   0.580   6.950   6.795
 3947SOL     OW16687   1.555   7.097   6.289
 3947SOL    HW116688   1.498   7.081   6.370
 3947SOL    HW216689   1.496   7.107   6.209
 3948SOL     OW16690   1.135   6.289   6.303
 3948SOL    HW116691   1.192   6.367   6.278
 3948SOL    HW216692   1.075   6.315   6.379
 3949SOL     OW16693   1.755   6.193   5.817
 3949SOL    HW116694   1.743   6.180   5.718
 3949SOL    HW216695   1.725   6.112   5.866
 3950SOL     OW16696   0.768   6.730   6.609
 3950SOL    HW116697   0.690   6.747   6.669
 3950SOL    HW216698   0.802   6.817   6.573
 3951SOL     OW16699   0.850   6.384   7.409
 3951SOL    HW116700   0.846   6.460   7.474
 3951SOL    HW216701   0.872   6.420   7.318
 3952SOL     OW16702   0.685   6.598   6.251
 3952SOL    HW116703   0.754   6.582   6.321
 3952SOL    HW216704   0.612   6.655   6.289
 3953SOL     OW16705   0.686   6.747   7.389
 3953SOL    HW116706   0.746   6.826   7.403
 3953SOL    HW216707   0.600   6.778   7.348
 3954SOL     OW16708   0.335   7.021   6.647
 3954SOL    HW116709   0.257   6.990   6.594
 3954SOL    HW216710   0.393   7.079   6.590
 3955SOL     OW16711   1.460   7.091   6.925
 3955SOL    HW116712   1.484   7.185   6.951
 3955SOL    HW216713   1.444   7.037   7.007
 3956SOL     OW16714   0.438   5.978   7.085
 3956SOL    HW116715   0.520   5.922   7.094
 3956SOL    HW216716   0.357   5.920   7.089
 3957SOL     OW16717   0.231   7.299   6.069
 3957SOL    HW116718   0.265   7.376   6.123
 3957SOL    HW216719   0.275   7.299   5.979
 3958SOL     OW16720   1.127   6.927   7.276
 3958SOL    HW116721   1.174   6.927   7.364
 3958SOL    HW216722   1.079   6.840   7.265
 3959SOL     OW16723   0.230   7.020   6.124
 3959SOL    HW116724   0.204   7.116   6.124
 3959SOL    HW216725   0.159   6.966   6.169
 3960SOL     OW16726   0.240   6.677   6.472
 3960SOL    HW116727   0.254   6.593   6.524
 3960SOL    HW216728   0.185   6.741   6.527
 3961SOL     OW16729   0.620   7.372   7.025
 3961SOL    HW116730   0.528   7.355   7.060
 3961SOL    HW216731   0.648   7.464   7.051
 3962SOL     OW16732   0.606   6.550   5.709
 3962SOL    HW116733   0.613   6.634   5.655
 3962SOL    HW216734   0.652   6.563   5.797
 3963SOL     OW16735   1.594   5.700   7.066
 3963SOL    HW116736   1.576   5.767   6.994
 3963SOL    HW216737   1.591   5.746   7.155
 3964SOL     OW16738   0.122   6.229   6.149
 3964SOL    HW116739   0.077   6.141   6.166
 3964SOL    HW216740   0.121   6.283   6.233
 3965SOL     OW16741   1.842   7.353   5.945
 3965SOL    HW116742   1.896   7.324   6.025
 3965SOL    HW216743   1.872   7.443   5.916
 3966SOL     OW16744   0.027   7.182   5.703
 3966SOL    HW116745   0.008   7.086   5.724
 3966SOL    HW216746  -0.006   7.240   5.778
 3967SOL     OW16747   1.689   6.508   6.198
 3967SOL    HW116748   1.784   6.479   6.206
 3967SOL    HW216749   1.681   6.573   6.123
 3968SOL     OW16750   1.641   6.694   6.018
 3968SOL    HW116751   1.727   6.696   5.966
 3968SOL    HW216752   1.655   6.741   6.106
 3969SOL     OW16753   0.113   6.323   7.183
 3969SOL    HW116754   0.201   6.310   7.228
 3969SOL    HW216755   0.100   6.420   7.161
 3970SOL     OW16756   0.613   6.951   6.312
 3970SOL    HW116757   0.564   6.864   6.321
 3970SOL    HW216758   0.590   6.994   6.225
 3971SOL     OW16759   1.293   6.814   7.009
 3971SOL    HW116760   1.330   6.741   6.951
 3971SOL    HW216761   1.345   6.819   7.094
 3972SOL     OW16762   0.809   5.590   6.088
 3972SOL    HW116763   0.849   5.681   6.079
 3972SOL    HW216764   0.709   5.598   6.094
 3973SOL     OW16765   0.197   6.562   6.850
 3973SOL    HW116766   0.286   6.517   6.836
 3973SOL    HW216767   0.124   6.497   6.831
 3974SOL     OW16768   1.525   6.585   5.776
 3974SOL    HW116769   1.462   6.509   5.789
 3974SOL    HW216770   1.573   6.603   5.862
 3975SOL     OW16771   1.187   7.378   7.202
 3975SOL    HW116772   1.211   7.438   7.126
 3975SOL    HW216773   1.194   7.283   7.172
 3976SOL     OW16774   0.317   5.837   7.387
 3976SOL    HW116775   0.388   5.908   7.393
 3976SOL    HW216776   0.229   5.876   7.415
 3977SOL     OW16777   1.466   7.003   6.539
 3977SOL    HW116778   1.407   7.009   6.619
 3977SOL    HW216779   1.451   6.915   6.493
 3978SOL     OW16780   1.667   7.300   6.158
 3978SOL    HW116781   1.626   7.277   6.070
 3978SOL    HW216782   1.649   7.226   6.223
 3979SOL     OW16783   0.598   6.315   5.856
 3979SOL    HW116784   0.622   6.384   5.788
 3979SOL    HW216785   0.520   6.348   5.910
 3980SOL     OW16786   1.281   5.931   6.530
 3980SOL    HW116787   1.195   5.881   6.517
 3980SOL    HW216788   1.343   5.877   6.586
 3981SOL     OW16789   1.576   7.248   5.893
 3981SOL    HW116790   1.665   7.294   5.896
 3981SOL    HW216791   1.555   7.224   5.798
 3982SOL     OW16792   0.807   6.191   7.051
 3982SOL    HW116793   0.760   6.188   7.140
 3982SOL    HW216794   0.756   6.136   6.985
 3983SOL     OW16795   1.394   6.055   7.260
 3983SOL    HW116796   1.374   6.098   7.348
 3983SOL    HW216797   1.472   5.993   7.269
 3984SOL     OW16798   0.973   6.476   7.158
 3984SOL    HW116799   1.019   6.392   7.129
 3984SOL    HW216800   0.917   6.510   7.083
 3985SOL     OW16801   0.991   5.996   6.828
 3985SOL    HW116802   0.914   6.030   6.882
 3985SOL    HW216803   0.957   5.945   6.749
 3986SOL     OW16804   1.041   6.287   6.015
 3986SOL    HW116805   1.067   6.283   6.111
 3986SOL    HW216806   0.956   6.236   6.001
 3987SOL     OW16807   0.076   6.397   6.375
 3987SOL    HW116808   0.175   6.385   6.384
 3987SOL    HW216809   0.052   6.492   6.396
 3988SOL     OW16810   0.130   7.407   7.157
 3988SOL    HW116811   0.120   7.392   7.256
 3988SOL    HW216812   0.044   7.443   7.121
 3989SOL     OW16813   0.865   5.934   5.781
 3989SOL    HW116814   0.924   5.997   5.732
 3989SOL    HW216815   0.884   5.840   5.752
 3990SOL     OW16816   1.719   6.171   7.417
 3990SOL    HW116817   1.693   6.260   7.381
 3990SOL    HW216818   1.717   6.103   7.344
 3991SOL     OW16819   1.362   6.730   6.131
 3991SOL    HW116820   1.445   6.701   6.083
 3991SOL    HW216821   1.313   6.797   6.075
 3992SOL     OW16822   0.550   5.782   6.471
 3992SOL    HW116823   0.545   5.777   6.571
 3992SOL    HW216824   0.552   5.878   6.442
 3993SOL     OW16825   1.008   7.042   6.063
 3993SOL    HW116826   0.962   7.114   6.011
 3993SOL    HW216827   1.004   7.062   6.161
 3994SOL     OW16828   0.351   7.387   6.439
 3994SOL    HW116829   0.401   7.301   6.445
 3994SOL    HW216830   0.416   7.464   6.436
 3995SOL     OW16831   1.795   6.652   6.459
 3995SOL    HW116832   1.733   6.637   6.383
 3995SOL    HW216833   1.743   6.663   6.544
 3996SOL     OW16834   1.227   7.136   7.092
 3996SOL    HW116835   1.233   7.059   7.156
 3996SOL    HW216836   1.175   7.110   7.012
 3997SOL     OW16837   0.321   6.529   5.828
 3997SOL    HW116838   0.403   6.568   5.786
 3997SOL    HW216839   0.294   6.447   5.779
 3998SOL     OW16840   1.458   6.321   6.314
 3998SOL    HW116841   1.453   6.256   6.389
 3998SOL    HW216842   1.538   6.380   6.327
 3999SOL     OW16843   1.111   7.362   5.823
 3999SOL    HW116844   1.051   7.300   5.873
 3999SOL    HW216845   1.142   7.318   5.738
 4000SOL     OW16846   0.202   5.871   7.084
 4000SOL    HW116847   0.122   5.931   7.071
 4000SOL    HW216848   0.192   5.822   7.170
 4001SOL     OW16849   1.632   6.963   5.667
 4001SOL    HW116850   1.600   7.057   5.657
 4001SOL    HW216851   1.556   6.900   5.655
 4002SOL     OW16852   0.464   7.329   5.909
 4002SOL    HW116853   0.497   7.368   5.995
 4002SOL    HW216854   0.540   7.322   5.844
 4003SOL     OW16855   1.400   5.693   6.012
 4003SOL    HW116856   1.376   5.656   5.922
 4003SOL    HW216857   1.499   5.709   6.016
 4004SOL     OW16858   0.249   7.371   6.827
 4004SOL    HW116859   0.306   7.306   6.877
 4004SOL    HW216860   0.233   7.338   6.734
 4005SOL     OW16861   0.940   7.284   6.490
 4005SOL    HW116862   1.020   7.227   6.511
 4005SOL    HW216863   0.891   7.244   6.413
 4006SOL     OW16864   0.382   6.286   6.066
 4006SOL    HW116865   0.427   6.196   6.063
 4006SOL    HW216866   0.288   6.275   6.099
 4007SOL     OW16867   1.547   5.808   7.315
 4007SOL    HW116868   1.542   5.845   7.407
 4007SOL    HW216869   1.475   5.739   7.303
 4008SOL     OW16870   0.614   5.708   5.703
 4008SOL    HW116871   0.712   5.686   5.710
 4008SOL    HW216872   0.583   5.691   5.610
 4009SOL     OW16873   0.781   5.850   7.335
 4009SOL    HW116874   0.848   5.789   7.378
 4009SOL    HW216875   0.708   5.869   7.400
 4010SOL     OW16876   0.888   7.100   6.781
 4010SOL    HW116877   0.865   7.075   6.687
 4010SOL    HW216878   0.949   7.031   6.820
 4011SOL     OW16879   1.351   6.176   7.019
 4011SOL    HW116880   1.379   6.133   7.104
 4011SOL    HW216881   1.376   6.272   7.020
 4012SOL     OW16882   0.803   6.988   6.510
 4012SOL    HW116883   0.893   7.002   6.468
 4012SOL    HW216884   0.732   6.990   6.439
 4013SOL     OW16885   0.922   6.089   6.485
 4013SOL    HW116886   0.897   6.080   6.389
 4013SOL    HW216887   0.970   6.007   6.516
 4014SOL     OW16888   1.434   6.774   5.627
 4014SOL    HW116889   1.466   6.698   5.684
 4014SOL    HW216890   1.342   6.801   5.657
 4015SOL     OW16891   0.297   5.621   5.757
 4015SOL    HW116892   0.346   5.705   5.736
 4015SOL    HW216893   0.359   5.556   5.802
 4016SOL     OW16894   0.935   5.822   6.066
 4016SOL    HW116895   0.887   5.863   5.988
 4016SOL    HW216896   1.034   5.820   6.047
 4017SOL     OW16897   1.076   6.269   7.050
 4017SOL    HW116898   0.996   6.208   7.053
 4017SOL    HW216899   1.157   6.216   7.026
 4018SOL     OW16900   1.227   7.156   6.379
 4018SOL    HW116901   1.248   7.230   6.314
 4018SOL    HW216902   1.295   7.156   6.452
 4019SOL     OW16903   0.459   6.738   6.327
 4019SOL    HW116904   0.388   6.711   6.392
 4019SOL    HW216905   0.433   6.710   6.234
 4020SOL     OW16906   1.271   7.383   6.177
 4020SOL    HW116907   1.315   7.447   6.113
 4020SOL    HW216908   1.221   7.435   6.247
 4021SOL     OW16909   1.032   6.135   5.602
 4021SOL    HW116910   0.991   6.217   5.563
 4021SOL    HW216911   1.096   6.161   5.675
 4022SOL     OW16912   0.078   6.142   6.972
 4022SOL    HW116913   0.170   6.141   6.931
 4022SOL    HW216914   0.072   6.216   7.039
 4023SOL     OW16915   0.561   5.808   6.733
 4023SOL    HW116916   0.599   5.724   6.770
 4023SOL    HW216917   0.473   5.827   6.777
 4024SOL     OW16918   0.866   6.040   6.228
 4024SOL    HW116919   0.834   6.112   6.166
 4024SOL    HW216920   0.890   5.959   6.175
 4025SOL     OW16921   1.017   5.625   6.339
 4025SOL    HW116922   0.945   5.630   6.270
 4025SOL    HW216923   0.993   5.556   6.408
 4026SOL     OW16924   1.429   6.759   6.453
 4026SOL    HW116925   1.374   6.675   6.446
 4026SOL    HW216926   1.455   6.788   6.361
 4027SOL     OW16927   1.466   6.176   6.578
 4027SOL    HW116928   1.436   6.081   6.585
 4027SOL    HW216929   1.539   6.192   6.644
 4028SOL     OW16930   1.857   6.419   5.963
 4028SOL    HW116931   1.899   6.355   6.027
 4028SOL    HW216932   1.819   6.368   5.885
 4029SOL     OW16933   0.488   6.971   5.760
 4029SOL    HW116934   0.401   6.956   5.807
 4029SOL    HW216935   0.471   6.997   5.665
 4030SOL     OW16936   1.664   6.866   6.243
 4030SOL    HW116937   1.763   6.874   6.257
 4030SOL    HW216938   1.619   6.950   6.274
 4031SOL     OW16939   1.390   6.161   5.664
 4031SOL    HW116940   1.336   6.140   5.745
 4031SOL    HW216941   1.481   6.120   5.673
 4032SOL     OW16942   0.527   5.842   5.914
 4032SOL    HW116943   0.554   5.783   5.839
 4032SOL    HW216944   0.527   5.937   5.883
 4033SOL     OW16945   1.754   6.809   7.174
 4033SOL    HW116946   1.845   6.770   7.161
 4033SOL    HW216947   1.762   6.905   7.198
 4034SOL     OW16948   1.064   6.933   6.926
 4034SOL    HW116949   0.984   6.910   6.981
 4034SOL    HW216950   1.147   6.907   6.975
 4035SOL     OW16951   1.592   7.215   7.211
 4035SOL    HW116952   1.619   7.249   7.121
 4035SOL    HW216953   1.671   7.177   7.257
 4036SOL     OW16954   1.111   6.781   6.686
 4036SOL    HW116955   1.071   6.825   6.767
 4036SOL    HW216956   1.070   6.818   6.603
 4037SOL     OW16957   1.638   6.685   6.665
 4037SOL    HW116958   1.643   6.766   6.724
 4037SOL    HW216959   1.552   6.687   6.614
 4038SOL     OW16960   0.915   5.675   6.988
 4038SOL    HW116961   0.940   5.655   6.893
 4038SOL    HW216962   0.987   5.731   7.030
 4039SOL     OW16963   0.980   6.702   7.305
 4039SOL    HW116964   0.881   6.708   7.315
 4039SOL    HW216965   1.003   6.622   7.249
 4040SOL     OW16966   0.705   6.636   5.954
 4040SOL    HW116967   0.691   6.643   6.053
 4040SOL    HW216968   0.789   6.585   5.936
 4041SOL     OW16969   0.410   6.399   6.837
 4041SOL    HW116970   0.496   6.411   6.887
 4041SOL    HW216971   0.368   6.312   6.864
 4042SOL     OW16972   1.274   5.972   6.848
 4042SOL    HW116973   1.295   6.046   6.912
 4042SOL    HW216974   1.185   5.989   6.805
 4043SOL     OW16975   0.064   7.150   6.917
 4043SOL    HW116976   0.018   7.232   6.883
 4043SOL    HW216977   0.162   7.169   6.926
 4044SOL     OW16978   0.367   6.686   6.087
 4044SOL    HW116979   0.360   6.769   6.031
 4044SOL    HW216980   0.371   6.606   6.027
 4045SOL     OW16981   0.566   6.123   6.451
 4045SOL    HW116982   0.578   6.189   6.377
 4045SOL    HW216983   0.612   6.157   6.534
 4046SOL     OW16984   1.252   6.934   5.974
 4046SOL    HW116985   1.302   7.011   6.014
 4046SOL    HW216986   1.157   6.936   6.006
 4047SOL     OW16987   1.272   7.031   6.728
 4047SOL    HW116988   1.319   7.044   6.815
 4047SOL    HW216989   1.206   6.957   6.737
 4048SOL     OW16990   1.582   6.225   6.058
 4048SOL    HW116991   1.551   6.286   6.131
 4048SOL    HW216992   1.632   6.277   5.989
 4049SOL     OW16993   0.354   7.096   6.915
 4049SOL    HW116994   0.333   7.052   6.828
 4049SOL    HW216995   0.451   7.122   6.918
 4050SOL     OW16996   0.402   6.337   7.184
 4050SOL    HW116997   0.470   6.392   7.137
 4050SOL    HW216998   0.442   6.249   7.211
 4051SOL     OW16999   1.587   6.365   7.256
 4051SOL    HW117000   1.495   6.403   7.251
 4051SOL    HW217001   1.647   6.412   7.191
 4052SOL     OW17002   0.504   5.636   7.326
 4052SOL    HW117003   0.462   5.579   7.256
 4052SOL    HW217004   0.438   5.705   7.358
 4053SOL     OW17005   0.573   6.456   6.615
 4053SOL    HW117006   0.617   6.545   6.606
 4053SOL    HW217007   0.510   6.456   6.692
 4054SOL     OW17008   1.360   6.448   6.631
 4054SOL    HW117009   1.285   6.448   6.565
 4054SOL    HW217010   1.397   6.356   6.640
 4055SOL     OW17011   1.209   6.111   5.861
 4055SOL    HW117012   1.222   6.027   5.915
 4055SOL    HW217013   1.180   6.185   5.921
 4056SOL     OW17014   0.307   5.799   6.817
 4056SOL    HW117015   0.284   5.836   6.907
 4056SOL    HW217016   0.277   5.704   6.811
 4057SOL     OW17017   0.037   6.896   6.868
 4057SOL    HW117018   0.090   6.847   6.936
 4057SOL    HW217019   0.059   6.994   6.873
 4058SOL     OW17020   1.728   6.521   7.440
 4058SOL    HW117021   1.682   6.514   7.351
 4058SOL    HW217022   1.666   6.565   7.506
 4059SOL     OW17023   0.307   5.649   6.204
 4059SOL    HW117024   0.296   5.743   6.237
 4059SOL    HW217025   0.302   5.586   6.281
 4060SOL     OW17026   1.622   5.953   5.960
 4060SOL    HW117027   1.624   5.877   6.024
 4060SOL    HW217028   1.574   6.030   6.000
 4061SOL     OW17029   1.023   6.352   6.552
 4061SOL    HW117030   1.038   6.373   6.648
 4061SOL    HW217031   0.993   6.257   6.543
 4062SOL     OW17032   0.980   7.159   7.286
 4062SOL    HW117033   0.960   7.203   7.198
 4062SOL    HW217034   1.019   7.068   7.270
 4063SOL     OW17035   1.859   7.104   7.191
 4063SOL    HW117036   1.873   7.131   7.096
 4063SOL    HW217037   1.942   7.126   7.244
 4064SOL     OW17038   0.350   6.484   7.390
 4064SOL    HW117039   0.426   6.528   7.438
 4064SOL    HW217040   0.385   6.437   7.308
 4065SOL     OW17041   1.540   5.860   5.711
 4065SOL    HW117042   1.479   5.785   5.734
 4065SOL    HW217043   1.562   5.912   5.794
 4066SOL     OW17044   1.303   6.424   5.628
 4066SOL    HW117045   1.337   6.331   5.643
 4066SOL    HW217046   1.321   6.451   5.533
 4067SOL     OW17047   1.068   6.919   6.435
 4067SOL    HW117048   1.075   6.835   6.380
 4067SOL    HW217049   1.130   6.988   6.399
 4068SOL     OW17050   0.319   6.396   6.535
 4068SOL    HW117051   0.412   6.432   6.540
 4068SOL    HW217052   0.313   6.311   6.587
 4069SOL     OW17053   0.339   6.095   6.592
 4069SOL    HW117054   0.287   6.012   6.575
 4069SOL    HW217055   0.416   6.100   6.528
 4070SOL     OW17056   0.008   6.912   5.786
 4070SOL    HW117057  -0.085   6.933   5.755
 4070SOL    HW217058   0.018   6.813   5.799
 4071SOL     OW17059   0.088   7.387   6.513
 4071SOL    HW117060   0.046   7.301   6.486
 4071SOL    HW217061   0.182   7.390   6.479
 4072SOL     OW17062   0.504   7.154   6.496
 4072SOL    HW117063   0.570   7.228   6.505
 4072SOL    HW217064   0.548   7.075   6.454
 4073SOL     OW17065   1.002   6.382   6.824
 4073SOL    HW117066   1.043   6.350   6.910
 4073SOL    HW217067   0.906   6.355   6.821
 4074SOL     OW17068   0.040   6.130   6.700
 4074SOL    HW117069   0.125   6.097   6.659
 4074SOL    HW217070   0.053   6.145   6.798
 4075SOL     OW17071   0.189   6.106   7.308
 4075SOL    HW117072   0.248   6.066   7.238
 4075SOL    HW217073   0.131   6.177   7.267
 4076SOL     OW17074   1.369   6.536   7.246
 4076SOL    HW117075   1.408   6.625   7.266
 4076SOL    HW217076   1.379   6.516   7.149
 4077SOL     OW17077   0.815   6.158   5.911
 4077SOL    HW117078   0.822   6.069   5.865
 4077SOL    HW217079   0.721   6.192   5.903
 4078SOL     OW17080   1.657   6.190   6.792
 4078SOL    HW117081   1.619   6.121   6.854
 4078SOL    HW217082   1.739   6.154   6.748
 4079SOL     OW17083   0.252   7.150   7.330
 4079SOL    HW117084   0.222   7.207   7.406
 4079SOL    HW217085   0.245   7.053   7.356
 4080SOL     OW17086   0.671   6.050   6.855
 4080SOL    HW117087   0.637   5.961   6.825
 4080SOL    HW217088   0.697   6.104   6.775
 4081SOL     OW17089   0.930   7.264   7.051
 4081SOL    HW117090   0.906   7.246   6.956
 4081SOL    HW217091   0.960   7.358   7.061
 4082SOL     OW17092   0.473   6.086   5.777
 4082SOL    HW117093   0.534   6.166   5.781
 4082SOL    HW217094   0.378   6.117   5.784
 4083SOL     OW17095   0.159   6.723   7.052
 4083SOL    HW117096   0.181   6.662   7.128
 4083SOL    HW217097   0.169   6.674   6.966
 4084SOL     OW17098   1.347   6.645   6.820
 4084SOL    HW117099   1.371   6.582   6.746
 4084SOL    HW217100   1.257   6.685   6.802
 4085SOL     OW17101   1.302   6.441   5.895
 4085SOL    HW117102   1.216   6.410   5.937
 4085SOL    HW217103   1.298   6.427   5.796
 4086SOL     OW17104   1.759   7.333   6.740
 4086SOL    HW117105   1.820   7.363   6.667
 4086SOL    HW217106   1.721   7.244   6.718
 4087SOL     OW17107   1.252   7.317   6.714
 4087SOL    HW117108   1.336   7.322   6.660
 4087SOL    HW217109   1.229   7.221   6.732
 4088SOL     OW17110   0.083   6.844   6.608
 4088SOL    HW117111   0.078   6.843   6.708
 4088SOL    HW217112   0.000   6.803   6.570
 4089SOL     OW17113   0.688   7.248   7.302
 4089SOL    HW117114   0.632   7.329   7.311
 4089SOL    HW217115   0.740   7.252   7.216
 4090SOL     OW17116   1.726   5.721   6.109
 4090SOL    HW117117   1.799   5.704   6.042
 4090SOL    HW217118   1.695   5.634   6.147
 4091SOL     OW17119   1.388   7.159   6.063
 4091SOL    HW117120   1.455   7.171   5.989
 4091SOL    HW217121   1.348   7.248   6.086
 4092SOL     OW17122   0.130   7.380   7.437
 4092SOL    HW117123   0.089   7.306   7.490
 4092SOL    HW217124   0.194   7.431   7.495
 4093SOL     OW17125   1.280   6.513   6.258
 4093SOL    HW117126   1.340   6.432   6.260
 4093SOL    HW217127   1.320   6.582   6.198
 4094SOL     OW17128   0.830   6.859   7.008
 4094SOL    HW117129   0.825   6.892   7.103
 4094SOL    HW217130   0.744   6.878   6.962
 4095SOL     OW17131   0.672   7.202   5.740
 4095SOL    HW117132   0.681   7.212   5.641
 4095SOL    HW217133   0.632   7.113   5.761
 4096SOL     OW17134   1.650   7.306   6.980
 4096SOL    HW117135   1.703   7.316   6.896
 4096SOL    HW217136   1.623   7.396   7.014
 4097SOL     OW17137   1.841   5.761   6.549
 4097SOL    HW117138   1.880   5.676   6.513
 4097SOL    HW217139   1.743   5.763   6.530
 4098SOL     OW17140   0.263   5.912   6.306
 4098SOL    HW117141   0.184   5.963   6.272
 4098SOL    HW217142   0.254   5.897   6.404
 4099SOL     OW17143   1.194   7.198   5.617
 4099SOL    HW117144   1.200   7.105   5.654
 4099SOL    HW217145   1.135   7.198   5.537
 4100SOL     OW17146   0.822   6.588   6.958
 4100SOL    HW117147   0.862   6.587   6.866
 4100SOL    HW217148   0.832   6.680   6.998
 4101SOL     OW17149   0.916   6.496   5.877
 4101SOL    HW117150   0.979   6.534   5.809
 4101SOL    HW217151   0.956   6.413   5.916
 4102SOL     OW17152   1.504   7.193   5.630
 4102SOL    HW117153   1.412   7.230   5.637
 4102SOL    HW217154   1.542   7.213   5.540
 4103SOL     OW17155   0.372   6.874   7.076
 4103SOL    HW117156   0.359   6.967   7.042
 4103SOL    HW217157   0.288   6.822   7.063
 4104SOL     OW17158   1.039   6.684   6.282
 4104SOL    HW117159   0.969   6.637   6.336
 4104SOL    HW217160   1.098   6.616   6.239
 4105SOL     OW17161   1.014   5.822   6.557
 4105SOL    HW117162   1.006   5.786   6.464
 4105SOL    HW217163   1.012   5.746   6.622
 4106SOL     OW17164   0.590   7.073   6.077
 4106SOL    HW117165   0.632   7.015   6.007
 4106SOL    HW217166   0.546   7.152   6.033
 4107SOL     OW17167   1.709   5.971   6.967
 4107SOL    HW117168   1.782   6.040   6.971
 4107SOL    HW217169   1.737   5.896   6.908
 4108SOL     OW17170   0.255   6.934   5.876
 4108SOL    HW117171   0.159   6.935   5.849
 4108SOL    HW217172   0.267   6.987   5.960
 4109SOL     OW17173   0.105   6.599   7.312
 4109SOL    HW117174   0.028   6.566   7.366
 4109SOL    HW217175   0.190   6.569   7.354
 4110SOL     OW17176   0.672   5.789   7.075
 4110SOL    HW117177   0.762   5.773   7.035
 4110SOL    HW217178   0.680   5.794   7.174
 4111SOL     OW17179   0.075   5.931   5.619
 4111SOL    HW117180  -0.017   5.903   5.590
 4111SOL    HW217181   0.106   6.008   5.563
 4112SOL     OW17182   1.440   6.442   6.984
 4112SOL    HW117183   1.383   6.494   6.921
 4112SOL    HW217184   1.536   6.454   6.960
 4113SOL     OW17185   0.072   5.752   5.904
 4113SOL    HW117186   0.055   5.835   5.850
 4113SOL    HW217187   0.162   5.715   5.882
 4114SOL     OW17188   1.183   6.921   5.705
 4114SOL    HW117189   1.084   6.910   5.707
 4114SOL    HW217190   1.217   6.936   5.798
 4115SOL     OW17191   0.613   6.428   7.017
 4115SOL    HW117192   0.669   6.509   7.000
 4115SOL    HW217193   0.672   6.348   7.020
 4116SOL     OW17194   1.493   7.353   6.545
 4116SOL    HW117195   1.526   7.417   6.476
 4116SOL    HW217196   1.559   7.347   6.620
 4117SOL     OW17197   0.716   6.151   7.294
 4117SOL    HW117198   0.735   6.216   7.368
 4117SOL    HW217199   0.776   6.071   7.303
 4118SOL     OW17200   1.450   6.806   7.219
 4118SOL    HW117201   1.441   6.796   7.318
 4118SOL    HW217202   1.546   6.799   7.193
 4119SOL     OW17203   0.390   7.327   7.146
 4119SOL    HW117204   0.299   7.368   7.144
 4119SOL    HW217205   0.383   7.233   7.178
 4120SOL     OW17206   1.674   6.469   6.840
 4120SOL    HW117207   1.647   6.380   6.803
 4120SOL    HW217208   1.675   6.537   6.767
 4121SOL     OW17209   1.225   5.911   6.035
 4121SOL    HW117210   1.290   5.837   6.024
 4121SOL    HW217211   1.245   5.961   6.119
 4122SOL     OW17212   0.594   6.331   6.238
 4122SOL    HW117213   0.644   6.416   6.219
 4122SOL    HW217214   0.506   6.333   6.190
 4123SOL     OW17215   1.777   5.928   7.228
 4123SOL    HW117216   1.760   5.959   7.134
 4123SOL    HW217217   1.693   5.891   7.266
 4124SOL     OW17218   1.730   6.520   7.103
 4124SOL    HW117219   1.768   6.611   7.118
 4124SOL    HW217220   1.722   6.503   7.004
 4125SOL     OW17221   0.859   6.960   5.602
 4125SOL    HW117222   0.813   6.975   5.690
 4125SOL    HW217223   0.903   7.045   5.572
 4126SOL     OW17224   0.661   7.376   6.539
 4126SOL    HW117225   0.615   7.464   6.526
 4126SOL    HW217226   0.760   7.388   6.532
 4127SOL     OW17227   0.859   6.542   6.447
 4127SOL    HW117228   0.913   6.473   6.495
 4127SOL    HW217229   0.827   6.611   6.513
 4128SOL     OW17230   1.083   6.570   5.673
 4128SOL    HW117231   1.060   6.623   5.591
 4128SOL    HW217232   1.164   6.514   5.654
 4129SOL     OW17233   1.861   7.155   6.437
 4129SOL    HW117234   1.790   7.143   6.367
 4129SOL    HW217235   1.862   7.076   6.497
 4130SOL     OW17236   0.221   6.900   7.430
 4130SOL    HW117237   0.156   6.827   7.409
 4130SOL    HW217238   0.225   6.914   7.528
 4131SOL     OW17239   0.079   6.826   6.239
 4131SOL    HW117240   0.078   6.779   6.327
 4131SOL    HW217241   0.161   6.798   6.188
 4132SOL     OW17242   0.672   6.977   7.210
 4132SOL    HW117243   0.594   6.927   7.248
 4132SOL    HW217244   0.669   7.072   7.241
 4133SOL     OW17245   1.824   5.778   6.813
 4133SOL    HW117246   1.820   5.688   6.857
 4133SOL    HW217247   1.827   5.767   6.714
 4134SOL     OW17248   0.428   6.010   6.106
 4134SOL    HW117249   0.458   5.938   6.044
 4134SOL    HW217250   0.389   5.970   6.189
 4135SOL     OW17251   1.705   7.073   6.690
 4135SOL    HW117252   1.612   7.048   6.663
 4135SOL    HW217253   1.731   7.023   6.772
 4136SOL     OW17254   0.317   6.133   6.866
 4136SOL    HW117255   0.355   6.074   6.938
 4136SOL    HW217256   0.357   6.107   6.778
 4137SOL     OW17257   0.812   7.172   6.273
 4137SOL    HW117258   0.844   7.182   6.179
 4137SOL    HW217259   0.733   7.110   6.275
 4138SOL     OW17260   1.424   5.800   6.698
 4138SOL    HW117261   1.476   5.735   6.753
 4138SOL    HW217262   1.375   5.863   6.759
 4139SOL     OW17263   1.001   5.620   6.740
 4139SOL    HW117264   0.938   5.548   6.709
 4139SOL    HW217265   1.094   5.584   6.740
 4140SOL     OW17266   0.770   6.916   5.887
 4140SOL    HW117267   0.724   6.829   5.904
 4140SOL    HW217268   0.861   6.913   5.928
 4141SOL     OW17269   0.618   7.153   6.870
 4141SOL    HW117270   0.613   7.235   6.927
 4141SOL    HW217271   0.707   7.150   6.825
 4142SOL     OW17272   1.352   5.638   5.754
 4142SOL    HW117273   1.387   5.597   5.670
 4142SOL    HW217274   1.262   5.600   5.774
 4143SOL     OW17275   1.300   6.039   6.277
 4143SOL    HW117276   1.241   6.119   6.281
 4143SOL    HW217277   1.315   6.004   6.370
 4144SOL     OW17278   1.593   5.807   6.468
 4144SOL    HW117279   1.509   5.806   6.522
 4144SOL    HW217280   1.595   5.890   6.412
 4145SOL     OW17281   0.039   6.663   5.886
 4145SOL    HW117282   0.138   6.652   5.877
 4145SOL    HW217283  -0.001   6.577   5.918
 4146SOL     OW17284   0.875   7.232   5.923
 4146SOL    HW117285   0.798   7.197   5.869
 4146SOL    HW217286   0.843   7.303   5.985
 4147SOL     OW17287   0.230   6.214   7.561
 4147SOL    HW117288   0.137   6.212   7.598
 4147SOL    HW217289   0.231   6.175   7.469
 4148SOL     OW17290   0.225   5.861   8.444
 4148SOL    HW117291   0.260   5.844   8.536
 4148SOL    HW217292   0.137   5.816   8.432
 4149SOL     OW17293   0.019   5.954   8.095
 4149SOL    HW117294  -0.063   5.997   8.134
 4149SOL    HW217295  -0.009   5.881   8.032
 4150SOL     OW17296   0.569   6.861   8.613
 4150SOL    HW117297   0.476   6.854   8.576
 4150SOL    HW217298   0.580   6.950   8.657
 4151SOL     OW17299   1.555   7.097   8.151
 4151SOL    HW117300   1.498   7.081   8.232
 4151SOL    HW217301   1.496   7.107   8.071
 4152SOL     OW17302   1.755   6.193   7.679
 4152SOL    HW117303   1.743   6.180   7.580
 4152SOL    HW217304   1.725   6.112   7.728
 4153SOL     OW17305   0.768   6.730   8.471
 4153SOL    HW117306   0.690   6.747   8.531
 4153SOL    HW217307   0.802   6.817   8.435
 4154SOL     OW17308   0.850   6.384   9.271
 4154SOL    HW117309   0.846   6.460   9.336
 4154SOL    HW217310   0.872   6.420   9.180
 4155SOL     OW17311   0.685   6.598   8.113
 4155SOL    HW117312   0.754   6.582   8.183
 4155SOL    HW217313   0.612   6.655   8.151
 4156SOL     OW17314   0.686   6.747   9.251
 4156SOL    HW117315   0.746   6.826   9.265
 4156SOL    HW217316   0.600   6.778   9.210
 4157SOL     OW17317   0.335   7.021   8.509
 4157SOL    HW117318   0.257   6.990   8.456
 4157SOL    HW217319   0.393   7.079   8.452
 4158SOL     OW17320   1.460   7.091   8.787
 4158SOL    HW117321   1.484   7.185   8.813
 4158SOL    HW217322   1.444   7.037   8.869
 4159SOL     OW17323   0.438   5.978   8.947
 4159SOL    HW117324   0.520   5.922   8.956
 4159SOL    HW217325   0.357   5.920   8.951
 4160SOL     OW17326   0.231   7.299   7.931
 4160SOL    HW117327   0.265   7.376   7.985
 4160SOL    HW217328   0.275   7.299   7.841
 4161SOL     OW17329   1.127   6.927   9.138
 4161SOL    HW117330   1.174   6.927   9.226
 4161SOL    HW217331   1.079   6.840   9.127
 4162SOL     OW17332   0.230   7.020   7.986
 4162SOL    HW117333   0.204   7.116   7.986
 4162SOL    HW217334   0.159   6.966   8.031
 4163SOL     OW17335   0.240   6.677   8.334
 4163SOL    HW117336   0.254   6.593   8.386
 4163SOL    HW217337   0.185   6.741   8.389
 4164SOL     OW17338   0.620   7.372   8.887
 4164SOL    HW117339   0.528   7.355   8.922
 4164SOL    HW217340   0.648   7.464   8.913
 4165SOL     OW17341   0.606   6.550   7.571
 4165SOL    HW117342   0.613   6.634   7.517
 4165SOL    HW217343   0.652   6.563   7.659
 4166SOL     OW17344   1.594   5.700   8.928
 4166SOL    HW117345   1.576   5.767   8.856
 4166SOL    HW217346   1.591   5.746   9.017
 4167SOL     OW17347   0.122   6.229   8.011
 4167SOL    HW117348   0.077   6.141   8.028
 4167SOL    HW217349   0.121   6.283   8.095
 4168SOL     OW17350   1.842   7.353   7.807
 4168SOL    HW117351   1.896   7.324   7.887
 4168SOL    HW217352   1.872   7.443   7.778
 4169SOL     OW17353   0.027   7.182   7.565
 4169SOL    HW117354   0.008   7.086   7.586
 4169SOL    HW217355  -0.006   7.240   7.640
 4170SOL     OW17356   1.689   6.508   8.060
 4170SOL    HW117357   1.784   6.479   8.068
 4170SOL    HW217358   1.681   6.573   7.985
 4171SOL     OW17359   1.641   6.694   7.880
 4171SOL    HW117360   1.727   6.696   7.828
 4171SOL    HW217361   1.655   6.741   7.968
 4172SOL     OW17362   0.113   6.323   9.045
 4172SOL    HW117363   0.201   6.310   9.090
 4172SOL    HW217364   0.100   6.420   9.023
 4173SOL     OW17365   0.613   6.951   8.174
 4173SOL    HW117366   0.564   6.864   8.183
 4173SOL    HW217367   0.590   6.994   8.087
 4174SOL     OW17368   1.293   6.814   8.871
 4174SOL    HW117369   1.330   6.741   8.813
 4174SOL    HW217370   1.345   6.819   8.956
 4175SOL     OW17371   0.809   5.590   7.950
 4175SOL    HW117372   0.849   5.681   7.941
 4175SOL    HW217373   0.709   5.598   7.956
 4176SOL     OW17374   1.525   6.585   7.638
 4176SOL    HW117375   1.462   6.509   7.651
 4176SOL    HW217376   1.573   6.603   7.724
 4177SOL     OW17377   1.187   7.378   9.064
 4177SOL    HW117378   1.211   7.438   8.988
 4177SOL    HW217379   1.194   7.283   9.034
 4178SOL     OW17380   0.317   5.837   9.249
 4178SOL    HW117381   0.388   5.908   9.255
 4178SOL    HW217382   0.229   5.876   9.277
 4179SOL     OW17383   1.466   7.003   8.401
 4179SOL    HW117384   1.407   7.009   8.481
 4179SOL    HW217385   1.451   6.915   8.355
 4180SOL     OW17386   1.667   7.300   8.020
 4180SOL    HW117387   1.626   7.277   7.932
 4180SOL    HW217388   1.649   7.226   8.085
 4181SOL     OW17389   0.598   6.315   7.718
 4181SOL    HW117390   0.622   6.384   7.650
 4181SOL    HW217391   0.520   6.348   7.772
 4182SOL     OW17392   1.281   5.931   8.392
 4182SOL    HW117393   1.195   5.881   8.379
 4182SOL    HW217394   1.343   5.877   8.448
 4183SOL     OW17395   1.576   7.248   7.755
 4183SOL    HW117396   1.665   7.294   7.758
 4183SOL    HW217397   1.555   7.224   7.660
 4184SOL     OW17398   0.807   6.191   8.913
 4184SOL    HW117399   0.760   6.188   9.002
 4184SOL    HW217400   0.756   6.136   8.847
 4185SOL     OW17401   1.394   6.055   9.122
 4185SOL    HW117402   1.374   6.098   9.210
 4185SOL    HW217403   1.472   5.993   9.131
 4186SOL     OW17404   0.973   6.476   9.020
 4186SOL    HW117405   1.019   6.392   8.991
 4186SOL    HW217406   0.917   6.510   8.945
 4187SOL     OW17407   0.991   5.996   8.690
 4187SOL    HW117408   0.914   6.030   8.744
 4187SOL    HW217409   0.957   5.945   8.611
 4188SOL     OW17410   0.076   6.397   8.237
 4188SOL    HW117411   0.175   6.385   8.246
 4188SOL    HW217412   0.052   6.492   8.258
 4189SOL     OW17413   0.865   5.934   7.643
 4189SOL    HW117414   0.924   5.997   7.594
 4189SOL    HW217415   0.884   5.840   7.614
 4190SOL     OW17416   1.719   6.171   9.279
 4190SOL    HW117417   1.693   6.260   9.243
 4190SOL    HW217418   1.717   6.103   9.206
 4191SOL     OW17419   1.362   6.730   7.993
 4191SOL    HW117420   1.445   6.701   7.945
 4191SOL    HW217421   1.313   6.797   7.937
 4192SOL     OW17422   0.550   5.782   8.333
 4192SOL    HW117423   0.545   5.777   8.433
 4192SOL    HW217424   0.552   5.878   8.304
 4193SOL     OW17425   0.351   7.387   8.301
 4193SOL    HW117426   0.401   7.301   8.307
 4193SOL    HW217427   0.416   7.464   8.298
 4194SOL     OW17428   1.795   6.652   8.321
 4194SOL    HW117429   1.733   6.637   8.245
 4194SOL    HW217430   1.743   6.663   8.406
 4195SOL     OW17431   1.227   7.136   8.954
 4195SOL    HW117432   1.233   7.059   9.018
 4195SOL    HW217433   1.175   7.110   8.874
 4196SOL     OW17434   0.321   6.529   7.690
 4196SOL    HW117435   0.403   6.568   7.648
 4196SOL    HW217436   0.294   6.447   7.641
 4197SOL     OW17437   1.458   6.321   8.176
 4197SOL    HW117438   1.453   6.256   8.251
 4197SOL    HW217439   1.538   6.380   8.189
 4198SOL     OW17440   1.111   7.362   7.685
 4198SOL    HW117441   1.051   7.300   7.735
 4198SOL    HW217442   1.142   7.318   7.600
 4199SOL     OW17443   0.202   5.871   8.946
 4199SOL    HW117444   0.122   5.931   8.933
 4199SOL    HW217445   0.192   5.822   9.032
 4200SOL     OW17446   1.632   6.963   7.529
 4200SOL    HW117447   1.600   7.057   7.519
 4200SOL    HW217448   1.556   6.900   7.517
 4201SOL     OW17449   0.464   7.329   7.771
 4201SOL    HW117450   0.497   7.368   7.857
 4201SOL    HW217451   0.540   7.322   7.706
 4202SOL     OW17452   1.400   5.693   7.874
 4202SOL    HW117453   1.376   5.656   7.784
 4202SOL    HW217454   1.499   5.709   7.878
 4203SOL     OW17455   0.249   7.371   8.689
 4203SOL    HW117456   0.306   7.306   8.739
 4203SOL    HW217457   0.233   7.338   8.596
 4204SOL     OW17458   0.940   7.284   8.352
 4204SOL    HW117459   1.020   7.227   8.373
 4204SOL    HW217460   0.891   7.244   8.275
 4205SOL     OW17461   0.382   6.286   7.928
 4205SOL    HW117462   0.427   6.196   7.925
 4205SOL    HW217463   0.288   6.275   7.961
 4206SOL     OW17464   1.547   5.808   9.177
 4206SOL    HW117465   1.542   5.845   9.269
 4206SOL    HW217466   1.475   5.739   9.165
 4207SOL     OW17467   0.614   5.708   7.565
 4207SOL    HW117468   0.712   5.686   7.572
 4207SOL    HW217469   0.583   5.691   7.472
 4208SOL     OW17470   0.781   5.850   9.197
 4208SOL    HW117471   0.848   5.789   9.240
 4208SOL    HW217472   0.708   5.869   9.262
 4209SOL     OW17473   0.888   7.100   8.643
 4209SOL    HW117474   0.865   7.075   8.549
 4209SOL    HW217475   0.949   7.031   8.682
 4210SOL     OW17476   1.351   6.176   8.881
 4210SOL    HW117477   1.379   6.133   8.966
 4210SOL    HW217478   1.376   6.272   8.882
 4211SOL     OW17479   0.803   6.988   8.372
 4211SOL    HW117480   0.893   7.002   8.330
 4211SOL    HW217481   0.732   6.990   8.301
 4212SOL     OW17482   0.922   6.089   8.347
 4212SOL    HW117483   0.897   6.080   8.251
 4212SOL    HW217484   0.970   6.007   8.378
 4213SOL     OW17485   0.539   5.650   7.960
 4213SOL    HW117486   0.458   5.651   8.018
 4213SOL    HW217487   0.542   5.733   7.905
 4214SOL     OW17488   1.434   6.774   7.489
 4214SOL    HW117489   1.466   6.698   7.546
 4214SOL    HW217490   1.342   6.801   7.519
 4215SOL     OW17491   0.297   5.621   7.619
 4215SOL    HW117492   0.346   5.705   7.598
 4215SOL    HW217493   0.359   5.556   7.664
 4216SOL     OW17494   0.935   5.822   7.928
 4216SOL    HW117495   0.887   5.863   7.850
 4216SOL    HW217496   1.034   5.820   7.909
 4217SOL     OW17497   1.076   6.269   8.912
 4217SOL    HW117498   0.996   6.208   8.915
 4217SOL    HW217499   1.157   6.216   8.888
 4218SOL     OW17500   1.227   7.156   8.241
 4218SOL    HW117501   1.248   7.230   8.176
 4218SOL    HW217502   1.295   7.156   8.314
 4219SOL     OW17503   0.459   6.738   8.189
 4219SOL    HW117504   0.388   6.711   8.254
 4219SOL    HW217505   0.433   6.710   8.096
 4220SOL     OW17506   1.271   7.383   8.039
 4220SOL    HW117507   1.315   7.447   7.975
 4220SOL    HW217508   1.221   7.435   8.109
 4221SOL     OW17509   1.032   6.135   7.464
 4221SOL    HW117510   0.991   6.217   7.425
 4221SOL    HW217511   1.096   6.161   7.537
 4222SOL     OW17512   0.078   6.142   8.834
 4222SOL    HW117513   0.170   6.141   8.793
 4222SOL    HW217514   0.072   6.216   8.901
 4223SOL     OW17515   0.561   5.808   8.595
 4223SOL    HW117516   0.599   5.724   8.632
 4223SOL    HW217517   0.473   5.827   8.639
 4224SOL     OW17518   0.866   6.040   8.090
 4224SOL    HW117519   0.834   6.112   8.028
 4224SOL    HW217520   0.890   5.959   8.037
 4225SOL     OW17521   1.017   5.625   8.201
 4225SOL    HW117522   0.945   5.630   8.132
 4225SOL    HW217523   0.993   5.556   8.270
 4226SOL     OW17524   1.429   6.759   8.315
 4226SOL    HW117525   1.374   6.675   8.308
 4226SOL    HW217526   1.455   6.788   8.223
 4227SOL     OW17527   1.466   6.176   8.440
 4227SOL    HW117528   1.436   6.081   8.447
 4227SOL    HW217529   1.539   6.192   8.506
 4228SOL     OW17530   1.857   6.419   7.825
 4228SOL    HW117531   1.899   6.355   7.889
 4228SOL    HW217532   1.819   6.368   7.747
 4229SOL     OW17533   0.488   6.971   7.622
 4229SOL    HW117534   0.401   6.956   7.669
 4229SOL    HW217535   0.471   6.997   7.527
 4230SOL     OW17536   1.664   6.866   8.105
 4230SOL    HW117537   1.763   6.874   8.119
 4230SOL    HW217538   1.619   6.950   8.136
 4231SOL     OW17539   1.390   6.161   7.526
 4231SOL    HW117540   1.336   6.140   7.607
 4231SOL    HW217541   1.481   6.120   7.535
 4232SOL     OW17542   0.527   5.842   7.776
 4232SOL    HW117543   0.554   5.783   7.701
 4232SOL    HW217544   0.527   5.937   7.745
 4233SOL     OW17545   1.754   6.809   9.036
 4233SOL    HW117546   1.845   6.770   9.023
 4233SOL    HW217547   1.762   6.905   9.060
 4234SOL     OW17548   1.064   6.933   8.788
 4234SOL    HW117549   0.984   6.910   8.843
 4234SOL    HW217550   1.147   6.907   8.837
 4235SOL     OW17551   1.592   7.215   9.073
 4235SOL    HW117552   1.619   7.249   8.983
 4235SOL    HW217553   1.671   7.177   9.119
 4236SOL     OW17554   1.111   6.781   8.548
 4236SOL    HW117555   1.071   6.825   8.629
 4236SOL    HW217556   1.070   6.818   8.465
 4237SOL     OW17557   1.638   6.685   8.527
 4237SOL    HW117558   1.643   6.766   8.586
 4237SOL    HW217559   1.552   6.687   8.476
 4238SOL     OW17560   0.915   5.675   8.850
 4238SOL    HW117561   0.940   5.655   8.755
 4238SOL    HW217562   0.987   5.731   8.892
 4239SOL     OW17563   0.980   6.702   9.167
 4239SOL    HW117564   0.881   6.708   9.177
 4239SOL    HW217565   1.003   6.622   9.111
 4240SOL     OW17566   0.705   6.636   7.816
 4240SOL    HW117567   0.691   6.643   7.915
 4240SOL    HW217568   0.789   6.585   7.798
 4241SOL     OW17569   0.410   6.399   8.699
 4241SOL    HW117570   0.496   6.411   8.749
 4241SOL    HW217571   0.368   6.312   8.726
 4242SOL     OW17572   1.274   5.972   8.710
 4242SOL    HW117573   1.295   6.046   8.774
 4242SOL    HW217574   1.185   5.989   8.667
 4243SOL     OW17575   0.367   6.686   7.949
 4243SOL    HW117576   0.360   6.769   7.893
 4243SOL    HW217577   0.371   6.606   7.889
 4244SOL     OW17578   0.566   6.123   8.313
 4244SOL    HW117579   0.578   6.189   8.239
 4244SOL    HW217580   0.612   6.157   8.396
 4245SOL     OW17581   1.252   6.934   7.836
 4245SOL    HW117582   1.302   7.011   7.876
 4245SOL    HW217583   1.157   6.936   7.868
 4246SOL     OW17584   1.272   7.031   8.590
 4246SOL    HW117585   1.319   7.044   8.677
 4246SOL    HW217586   1.206   6.957   8.599
 4247SOL     OW17587   0.354   7.096   8.777
 4247SOL    HW117588   0.333   7.052   8.690
 4247SOL    HW217589   0.451   7.122   8.780
 4248SOL     OW17590   0.402   6.337   9.046
 4248SOL    HW117591   0.470   6.392   8.999
 4248SOL    HW217592   0.442   6.249   9.073
 4249SOL     OW17593   1.587   6.365   9.118
 4249SOL    HW117594   1.495   6.403   9.113
 4249SOL    HW217595   1.647   6.412   9.053
 4250SOL     OW17596   1.013   5.691   9.218
 4250SOL    HW117597   1.019   5.776   9.166
 4250SOL    HW217598   1.045   5.615   9.161
 4251SOL     OW17599   0.504   5.636   9.188
 4251SOL    HW117600   0.462   5.579   9.118
 4251SOL    HW217601   0.438   5.705   9.220
 4252SOL     OW17602   0.573   6.456   8.477
 4252SOL    HW117603   0.617   6.545   8.468
 4252SOL    HW217604   0.510   6.456   8.554
 4253SOL     OW17605   1.360   6.448   8.493
 4253SOL    HW117606   1.285   6.448   8.427
 4253SOL    HW217607   1.397   6.356   8.502
 4254SOL     OW17608   1.209   6.111   7.723
 4254SOL    HW117609   1.222   6.027   7.777
 4254SOL    HW217610   1.180   6.185   7.783
 4255SOL     OW17611   0.307   5.799   8.679
 4255SOL    HW117612   0.284   5.836   8.769
 4255SOL    HW217613   0.277   5.704   8.673
 4256SOL     OW17614   0.732   6.220   8.512
 4256SOL    HW117615   0.791   6.194   8.436
 4256SOL    HW217616   0.704   6.316   8.501
 4257SOL     OW17617   1.728   6.521   9.302
 4257SOL    HW117618   1.682   6.514   9.213
 4257SOL    HW217619   1.666   6.565   9.368
 4258SOL     OW17620   0.307   5.649   8.066
 4258SOL    HW117621   0.296   5.743   8.099
 4258SOL    HW217622   0.302   5.586   8.143
 4259SOL     OW17623   1.622   5.953   7.822
 4259SOL    HW117624   1.624   5.877   7.886
 4259SOL    HW217625   1.574   6.030   7.862
 4260SOL     OW17626   1.023   6.352   8.414
 4260SOL    HW117627   1.038   6.373   8.510
 4260SOL    HW217628   0.993   6.257   8.405
 4261SOL     OW17629   1.859   7.104   9.053
 4261SOL    HW117630   1.873   7.131   8.958
 4261SOL    HW217631   1.942   7.126   9.106
 4262SOL     OW17632   0.350   6.484   9.252
 4262SOL    HW117633   0.426   6.528   9.300
 4262SOL    HW217634   0.385   6.437   9.170
 4263SOL     OW17635   1.303   6.424   7.490
 4263SOL    HW117636   1.337   6.331   7.505
 4263SOL    HW217637   1.321   6.451   7.395
 4264SOL     OW17638   1.068   6.919   8.297
 4264SOL    HW117639   1.075   6.835   8.242
 4264SOL    HW217640   1.130   6.988   8.261
 4265SOL     OW17641   0.319   6.396   8.397
 4265SOL    HW117642   0.412   6.432   8.402
 4265SOL    HW217643   0.313   6.311   8.449
 4266SOL     OW17644   0.339   6.095   8.454
 4266SOL    HW117645   0.287   6.012   8.437
 4266SOL    HW217646   0.416   6.100   8.390
 4267SOL     OW17647   1.138   5.966   9.126
 4267SOL    HW117648   1.093   6.029   9.190
 4267SOL    HW217649   1.231   5.997   9.109
 4268SOL     OW17650   1.160   5.793   8.925
 4268SOL    HW117651   1.160   5.857   9.002
 4268SOL    HW217652   1.188   5.841   8.842
 4269SOL     OW17653   0.008   6.912   7.648
 4269SOL    HW117654  -0.085   6.933   7.617
 4269SOL    HW217655   0.018   6.813   7.661
 4270SOL     OW17656   0.088   7.387   8.375
 4270SOL    HW117657   0.046   7.301   8.348
 4270SOL    HW217658   0.182   7.390   8.341
 4271SOL     OW17659   0.504   7.154   8.358
 4271SOL    HW117660   0.570   7.228   8.367
 4271SOL    HW217661   0.548   7.075   8.316
 4272SOL     OW17662   1.002   6.382   8.686
 4272SOL    HW117663   1.043   6.350   8.772
 4272SOL    HW217664   0.906   6.355   8.683
 4273SOL     OW17665   0.040   6.130   8.562
 4273SOL    HW117666   0.125   6.097   8.521
 4273SOL    HW217667   0.053   6.145   8.660
 4274SOL     OW17668   0.189   6.106   9.170
 4274SOL    HW117669   0.248   6.066   9.100
 4274SOL    HW217670   0.131   6.177   9.129
 4275SOL     OW17671   1.369   6.536   9.108
 4275SOL    HW117672   1.408   6.625   9.128
 4275SOL    HW217673   1.379   6.516   9.011
 4276SOL     OW17674   0.815   6.158   7.773
 4276SOL    HW117675   0.822   6.069   7.727
 4276SOL    HW217676   0.721   6.192   7.765
 4277SOL     OW17677   1.657   6.190   8.654
 4277SOL    HW117678   1.619   6.121   8.716
 4277SOL    HW217679   1.739   6.154   8.610
 4278SOL     OW17680   0.671   6.050   8.717
 4278SOL    HW117681   0.637   5.961   8.687
 4278SOL    HW217682   0.697   6.104   8.637
 4279SOL     OW17683   0.930   7.264   8.913
 4279SOL    HW117684   0.906   7.246   8.818
 4279SOL    HW217685   0.960   7.358   8.923
 4280SOL     OW17686   0.473   6.086   7.639
 4280SOL    HW117687   0.534   6.166   7.643
 4280SOL    HW217688   0.378   6.117   7.646
 4281SOL     OW17689   0.159   6.723   8.914
 4281SOL    HW117690   0.181   6.662   8.990
 4281SOL    HW217691   0.169   6.674   8.828
 4282SOL     OW17692   1.347   6.645   8.682
 4282SOL    HW117693   1.371   6.582   8.608
 4282SOL    HW217694   1.257   6.685   8.664
 4283SOL     OW17695   1.759   7.333   8.602
 4283SOL    HW117696   1.820   7.363   8.529
 4283SOL    HW217697   1.721   7.244   8.580
 4284SOL     OW17698   1.252   7.317   8.576
 4284SOL    HW117699   1.336   7.322   8.522
 4284SOL    HW217700   1.229   7.221   8.594
 4285SOL     OW17701   0.083   6.844   8.470
 4285SOL    HW117702   0.078   6.843   8.570
 4285SOL    HW217703   0.000   6.803   8.432
 4286SOL     OW17704   0.688   7.248   9.164
 4286SOL    HW117705   0.632   7.329   9.173
 4286SOL    HW217706   0.740   7.252   9.078
 4287SOL     OW17707   1.726   5.721   7.971
 4287SOL    HW117708   1.799   5.704   7.904
 4287SOL    HW217709   1.695   5.634   8.009
 4288SOL     OW17710   1.388   7.159   7.925
 4288SOL    HW117711   1.455   7.171   7.851
 4288SOL    HW217712   1.348   7.248   7.948
 4289SOL     OW17713   0.130   7.380   9.299
 4289SOL    HW117714   0.089   7.306   9.352
 4289SOL    HW217715   0.194   7.431   9.357
 4290SOL     OW17716   0.830   6.859   8.870
 4290SOL    HW117717   0.825   6.892   8.965
 4290SOL    HW217718   0.744   6.878   8.824
 4291SOL     OW17719   0.672   7.202   7.602
 4291SOL    HW117720   0.681   7.212   7.503
 4291SOL    HW217721   0.632   7.113   7.623
 4292SOL     OW17722   1.650   7.306   8.842
 4292SOL    HW117723   1.703   7.316   8.758
 4292SOL    HW217724   1.623   7.396   8.876
 4293SOL     OW17725   1.841   5.761   8.411
 4293SOL    HW117726   1.880   5.676   8.375
 4293SOL    HW217727   1.743   5.763   8.392
 4294SOL     OW17728   0.263   5.912   8.168
 4294SOL    HW117729   0.184   5.963   8.134
 4294SOL    HW217730   0.254   5.897   8.266
 4295SOL     OW17731   1.194   7.198   7.479
 4295SOL    HW117732   1.200   7.105   7.516
 4295SOL    HW217733   1.135   7.198   7.399
 4296SOL     OW17734   0.822   6.588   8.820
 4296SOL    HW117735   0.862   6.587   8.728
 4296SOL    HW217736   0.832   6.680   8.860
 4297SOL     OW17737   0.916   6.496   7.739
 4297SOL    HW117738   0.979   6.534   7.671
 4297SOL    HW217739   0.956   6.413   7.778
 4298SOL     OW17740   1.614   6.878   8.737
 4298SOL    HW117741   1.674   6.881   8.817
 4298SOL    HW217742   1.539   6.942   8.750
 4299SOL     OW17743   1.039   6.684   8.144
 4299SOL    HW117744   0.969   6.637   8.198
 4299SOL    HW217745   1.098   6.616   8.101
 4300SOL     OW17746   1.014   5.822   8.419
 4300SOL    HW117747   1.006   5.786   8.326
 4300SOL    HW217748   1.012   5.746   8.484
 4301SOL     OW17749   0.590   7.073   7.939
 4301SOL    HW117750   0.632   7.015   7.869
 4301SOL    HW217751   0.546   7.152   7.895
 4302SOL     OW17752   1.709   5.971   8.829
 4302SOL    HW117753   1.782   6.040   8.833
 4302SOL    HW217754   1.737   5.896   8.770
 4303SOL     OW17755   0.255   6.934   7.738
 4303SOL    HW117756   0.159   6.935   7.711
 4303SOL    HW217757   0.267   6.987   7.822
 4304SOL     OW17758   0.105   6.599   9.174
 4304SOL    HW117759   0.028   6.566   9.228
 4304SOL    HW217760   0.190   6.569   9.216
 4305SOL     OW17761   0.672   5.789   8.937
 4305SOL    HW117762   0.762   5.773   8.897
 4305SOL    HW217763   0.680   5.794   9.036
 4306SOL     OW17764   0.075   5.931   7.481
 4306SOL    HW117765  -0.017   5.903   7.452
 4306SOL    HW217766   0.106   6.008   7.425
 4307SOL     OW17767   1.440   6.442   8.846
 4307SOL    HW117768   1.383   6.494   8.783
 4307SOL    HW217769   1.536   6.454   8.822
 4308SOL     OW17770   0.072   5.752   7.766
 4308SOL    HW117771   0.055   5.835   7.712
 4308SOL    HW217772   0.162   5.715   7.744
 4309SOL     OW17773   1.183   6.921   7.567
 4309SOL    HW117774   1.084   6.910   7.569
 4309SOL    HW217775   1.217   6.936   7.660
 4310SOL     OW17776   0.613   6.428   8.879
 4310SOL    HW117777   0.669   6.509   8.862
 4310SOL    HW217778   0.672   6.348   8.882
 4311SOL     OW17779   1.493   7.353   8.407
 4311SOL    HW117780   1.526   7.417   8.338
 4311SOL    HW217781   1.559   7.347   8.482
 4312SOL     OW17782   0.716   6.151   9.156
 4312SOL    HW117783   0.735   6.216   9.230
 4312SOL    HW217784   0.776   6.071   9.165
 4313SOL     OW17785   1.450   6.806   9.081
 4313SOL    HW117786   1.441   6.796   9.180
 4313SOL    HW217787   1.546   6.799   9.055
 4314SOL     OW17788   1.674   6.469   8.702
 4314SOL    HW117789   1.647   6.380   8.665
 4314SOL    HW217790   1.675   6.537   8.629
 4315SOL     OW17791   0.594   6.331   8.100
 4315SOL    HW117792   0.644   6.416   8.081
 4315SOL    HW217793   0.506   6.333   8.052
 4316SOL     OW17794   1.777   5.928   9.090
 4316SOL    HW117795   1.760   5.959   8.996
 4316SOL    HW217796   1.693   5.891   9.128
 4317SOL     OW17797   1.730   6.520   8.965
 4317SOL    HW117798   1.768   6.611   8.980
 4317SOL    HW217799   1.722   6.503   8.866
 4318SOL     OW17800   0.859   6.960   7.464
 4318SOL    HW117801   0.813   6.975   7.552
 4318SOL    HW217802   0.903   7.045   7.434
 4319SOL     OW17803   0.661   7.376   8.401
 4319SOL    HW117804   0.615   7.464   8.388
 4319SOL    HW217805   0.760   7.388   8.394
 4320SOL     OW17806   0.859   6.542   8.309
 4320SOL    HW117807   0.913   6.473   8.357
 4320SOL    HW217808   0.827   6.611   8.375
 4321SOL     OW17809   1.083   6.570   7.535
 4321SOL    HW117810   1.060   6.623   7.453
 4321SOL    HW217811   1.164   6.514   7.516
 4322SOL     OW17812   1.861   7.155   8.299
 4322SOL    HW117813   1.790   7.143   8.229
 4322SOL    HW217814   1.862   7.076   8.359
 4323SOL     OW17815   0.079   6.826   8.101
 4323SOL    HW117816   0.078   6.779   8.189
 4323SOL    HW217817   0.161   6.798   8.050
 4324SOL     OW17818   0.672   6.977   9.072
 4324SOL    HW117819   0.594   6.927   9.110
 4324SOL    HW217820   0.669   7.072   9.103
 4325SOL     OW17821   1.824   5.778   8.675
 4325SOL    HW117822   1.820   5.688   8.719
 4325SOL    HW217823   1.827   5.767   8.576
 4326SOL     OW17824   0.428   6.010   7.968
 4326SOL    HW117825   0.458   5.938   7.906
 4326SOL    HW217826   0.389   5.970   8.051
 4327SOL     OW17827   1.705   7.073   8.552
 4327SOL    HW117828   1.612   7.048   8.525
 4327SOL    HW217829   1.731   7.023   8.634
 4328SOL     OW17830   0.317   6.133   8.728
 4328SOL    HW117831   0.355   6.074   8.800
 4328SOL    HW217832   0.357   6.107   8.640
 4329SOL     OW17833   0.812   7.172   8.135
 4329SOL    HW117834   0.844   7.182   8.041
 4329SOL    HW217835   0.733   7.110   8.137
 4330SOL     OW17836   1.424   5.800   8.560
 4330SOL    HW117837   1.476   5.735   8.615
 4330SOL    HW217838   1.375   5.863   8.621
 4331SOL     OW17839   1.001   5.620   8.602
 4331SOL    HW117840   0.938   5.548   8.571
 4331SOL    HW217841   1.094   5.584   8.602
 4332SOL     OW17842   0.770   6.916   7.749
 4332SOL    HW117843   0.724   6.829   7.766
 4332SOL    HW217844   0.861   6.913   7.790
 4333SOL     OW17845   0.618   7.153   8.732
 4333SOL    HW117846   0.613   7.235   8.789
 4333SOL    HW217847   0.707   7.150   8.687
 4334SOL     OW17848   1.593   5.807   8.330
 4334SOL    HW117849   1.509   5.806   8.384
 4334SOL    HW217850   1.595   5.890   8.274
 4335SOL     OW17851   0.039   6.663   7.748
 4335SOL    HW117852   0.138   6.652   7.739
 4335SOL    HW217853  -0.001   6.577   7.780
 4336SOL     OW17854   0.875   7.232   7.785
 4336SOL    HW117855   0.798   7.197   7.731
 4336SOL    HW217856   0.843   7.303   7.847
 4337SOL     OW17857   0.230   6.214   9.423
 4337SOL    HW117858   0.137   6.212   9.460
 4337SOL    HW217859   0.231   6.175   9.331
 4338SOL     OW17860   1.755   6.193   9.541
 4338SOL    HW117861   1.743   6.180   9.442
 4338SOL    HW217862   1.725   6.112   9.590
 4339SOL     OW17863   0.231   7.299   9.793
 4339SOL    HW117864   0.265   7.376   9.847
 4339SOL    HW217865   0.275   7.299   9.703
 4340SOL     OW17866   0.230   7.020   9.848
 4340SOL    HW117867   0.204   7.116   9.848
 4340SOL    HW217868   0.159   6.966   9.893
 4341SOL     OW17869   0.606   6.550   9.433
 4341SOL    HW117870   0.613   6.634   9.379
 4341SOL    HW217871   0.652   6.563   9.521
 4342SOL     OW17872   0.122   6.229   9.873
 4342SOL    HW117873   0.077   6.141   9.890
 4342SOL    HW217874   0.121   6.283   9.957
 4343SOL     OW17875   1.842   7.353   9.669
 4343SOL    HW117876   1.896   7.324   9.749
 4343SOL    HW217877   1.872   7.443   9.640
 4344SOL     OW17878   0.027   7.182   9.427
 4344SOL    HW117879   0.008   7.086   9.448
 4344SOL    HW217880  -0.006   7.240   9.502
 4345SOL     OW17881   1.689   6.508   9.922
 4345SOL    HW117882   1.784   6.479   9.930
 4345SOL    HW217883   1.681   6.573   9.847
 4346SOL     OW17884   1.641   6.694   9.742
 4346SOL    HW117885   1.727   6.696   9.690
 4346SOL    HW217886   1.655   6.741   9.830
 4347SOL     OW17887   0.613   6.951  10.036
 4347SOL    HW117888   0.564   6.864  10.045
 4347SOL    HW217889   0.590   6.994   9.949
 4348SOL     OW17890   0.809   5.590   9.812
 4348SOL    HW117891   0.849   5.681   9.803
 4348SOL    HW217892   0.709   5.598   9.818
 4349SOL     OW17893   1.525   6.585   9.500
 4349SOL    HW117894   1.462   6.509   9.513
 4349SOL    HW217895   1.573   6.603   9.586
 4350SOL     OW17896   0.598   6.315   9.580
 4350SOL    HW117897   0.622   6.384   9.512
 4350SOL    HW217898   0.520   6.348   9.634
 4351SOL     OW17899   1.576   7.248   9.617
 4351SOL    HW117900   1.665   7.294   9.620
 4351SOL    HW217901   1.555   7.224   9.522
 4352SOL     OW17902   1.041   6.287   9.739
 4352SOL    HW117903   1.067   6.283   9.835
 4352SOL    HW217904   0.956   6.236   9.725
 4353SOL     OW17905   0.865   5.934   9.505
 4353SOL    HW117906   0.924   5.997   9.456
 4353SOL    HW217907   0.884   5.840   9.476
 4354SOL     OW17908   1.362   6.730   9.855
 4354SOL    HW117909   1.445   6.701   9.807
 4354SOL    HW217910   1.313   6.797   9.799
 4355SOL     OW17911   1.008   7.042   9.787
 4355SOL    HW117912   0.962   7.114   9.735
 4355SOL    HW217913   1.004   7.062   9.885
 4356SOL     OW17914   0.351   7.387  10.163
 4356SOL    HW117915   0.401   7.301  10.169
 4356SOL    HW217916   0.416   7.464  10.160
 4357SOL     OW17917   0.321   6.529   9.552
 4357SOL    HW117918   0.403   6.568   9.510
 4357SOL    HW217919   0.294   6.447   9.503
 4358SOL     OW17920   1.632   6.963   9.391
 4358SOL    HW117921   1.600   7.057   9.381
 4358SOL    HW217922   1.556   6.900   9.379
 4359SOL     OW17923   0.464   7.329   9.633
 4359SOL    HW117924   0.497   7.368   9.719
 4359SOL    HW217925   0.540   7.322   9.568
 4360SOL     OW17926   1.400   5.693   9.736
 4360SOL    HW117927   1.376   5.656   9.646
 4360SOL    HW217928   1.499   5.709   9.740
 4361SOL     OW17929   0.382   6.286   9.790
 4361SOL    HW117930   0.427   6.196   9.787
 4361SOL    HW217931   0.288   6.275   9.823
 4362SOL     OW17932   0.614   5.708   9.427
 4362SOL    HW117933   0.712   5.686   9.434
 4362SOL    HW217934   0.583   5.691   9.334
 4363SOL     OW17935   0.539   5.650   9.822
 4363SOL    HW117936   0.458   5.651   9.880
 4363SOL    HW217937   0.542   5.733   9.767
 4364SOL     OW17938   1.434   6.774   9.351
 4364SOL    HW117939   1.466   6.698   9.408
 4364SOL    HW217940   1.342   6.801   9.381
 4365SOL     OW17941   0.297   5.621   9.481
 4365SOL    HW117942   0.346   5.705   9.460
 4365SOL    HW217943   0.359   5.556   9.526
 4366SOL     OW17944   0.935   5.822   9.790
 4366SOL    HW117945   0.887   5.863   9.712
 4366SOL    HW217946   1.034   5.820   9.771
 4367SOL     OW17947   0.459   6.738  10.051
 4367SOL    HW117948   0.388   6.711  10.116
 4367SOL    HW217949   0.433   6.710   9.958
 4368SOL     OW17950   1.271   7.383   9.901
 4368SOL    HW117951   1.315   7.447   9.837
 4368SOL    HW217952   1.221   7.435   9.971
 4369SOL     OW17953   1.032   6.135   9.326
 4369SOL    HW117954   0.991   6.217   9.287
 4369SOL    HW217955   1.096   6.161   9.399
 4370SOL     OW17956   0.866   6.040   9.952
 4370SOL    HW117957   0.834   6.112   9.890
 4370SOL    HW217958   0.890   5.959   9.899
 4371SOL     OW17959   1.857   6.419   9.687
 4371SOL    HW117960   1.899   6.355   9.751
 4371SOL    HW217961   1.819   6.368   9.609
 4372SOL     OW17962   0.488   6.971   9.484
 4372SOL    HW117963   0.401   6.956   9.531
 4372SOL    HW217964   0.471   6.997   9.389
 4373SOL     OW17965   1.390   6.161   9.388
 4373SOL    HW117966   1.336   6.140   9.469
 4373SOL    HW217967   1.481   6.120   9.397
 4374SOL     OW17968   0.527   5.842   9.638
 4374SOL    HW117969   0.554   5.783   9.563
 4374SOL    HW217970   0.527   5.937   9.607
 4375SOL     OW17971   0.705   6.636   9.678
 4375SOL    HW117972   0.691   6.643   9.777
 4375SOL    HW217973   0.789   6.585   9.660
 4376SOL     OW17974   0.367   6.686   9.811
 4376SOL    HW117975   0.360   6.769   9.755
 4376SOL    HW217976   0.371   6.606   9.751
 4377SOL     OW17977   1.252   6.934   9.698
 4377SOL    HW117978   1.302   7.011   9.738
 4377SOL    HW217979   1.157   6.936   9.730
 4378SOL     OW17980   1.582   6.225   9.782
 4378SOL    HW117981   1.551   6.286   9.855
 4378SOL    HW217982   1.632   6.277   9.713
 4379SOL     OW17983   1.209   6.111   9.585
 4379SOL    HW117984   1.222   6.027   9.639
 4379SOL    HW217985   1.180   6.185   9.645
 4380SOL     OW17986   0.307   5.649   9.928
 4380SOL    HW117987   0.296   5.743   9.961
 4380SOL    HW217988   0.302   5.586  10.005
 4381SOL     OW17989   1.622   5.953   9.684
 4381SOL    HW117990   1.624   5.877   9.748
 4381SOL    HW217991   1.574   6.030   9.724
 4382SOL     OW17992   1.540   5.860   9.435
 4382SOL    HW117993   1.479   5.785   9.458
 4382SOL    HW217994   1.562   5.912   9.518
 4383SOL     OW17995   1.303   6.424   9.352
 4383SOL    HW117996   1.337   6.331   9.367
 4383SOL    HW217997   1.321   6.451   9.257
 4384SOL     OW17998   0.008   6.912   9.510
 4384SOL    HW117999  -0.085   6.933   9.479
 4384SOL    HW218000   0.018   6.813   9.523
 4385SOL     OW18001   0.815   6.158   9.635
 4385SOL    HW118002   0.822   6.069   9.589
 4385SOL    HW218003   0.721   6.192   9.627
 4386SOL     OW18004   0.473   6.086   9.501
 4386SOL    HW118005   0.534   6.166   9.505
 4386SOL    HW218006   0.378   6.117   9.508
 4387SOL     OW18007   1.302   6.441   9.619
 4387SOL    HW118008   1.216   6.410   9.661
 4387SOL    HW218009   1.298   6.427   9.520
 4388SOL     OW18010   1.726   5.721   9.833
 4388SOL    HW118011   1.799   5.704   9.766
 4388SOL    HW218012   1.695   5.634   9.871
 4389SOL     OW18013   1.388   7.159   9.787
 4389SOL    HW118014   1.455   7.171   9.713
 4389SOL    HW218015   1.348   7.248   9.810
 4390SOL     OW18016   0.916   6.496   9.601
 4390SOL    HW118017   0.979   6.534   9.533
 4390SOL    HW218018   0.956   6.413   9.640
 4391SOL     OW18019   1.504   7.193   9.354
 4391SOL    HW118020   1.412   7.230   9.361
 4391SOL    HW218021   1.542   7.213   9.264
 4392SOL     OW18022   0.590   7.073   9.801
 4392SOL    HW118023   0.632   7.015   9.731
 4392SOL    HW218024   0.546   7.152   9.757
 4393SOL     OW18025   0.255   6.934   9.600
 4393SOL    HW118026   0.159   6.935   9.573
 4393SOL    HW218027   0.267   6.987   9.684
 4394SOL     OW18028   0.075   5.931   9.343
 4394SOL    HW118029  -0.017   5.903   9.314
 4394SOL    HW218030   0.106   6.008   9.287
 4395SOL     OW18031   0.072   5.752   9.628
 4395SOL    HW118032   0.055   5.835   9.574
 4395SOL    HW218033   0.162   5.715   9.606
 4396SOL     OW18034   1.225   5.911   9.759
 4396SOL    HW118035   1.290   5.837   9.748
 4396SOL    HW218036   1.245   5.961   9.843
 4397SOL     OW18037   1.083   6.570   9.397
 4397SOL    HW118038   1.060   6.623   9.315
 4397SOL    HW218039   1.164   6.514   9.378
 4398SOL     OW18040   0.079   6.826   9.963
 4398SOL    HW118041   0.078   6.779  10.051
 4398SOL    HW218042   0.161   6.798   9.912
 4399SOL     OW18043   0.428   6.010   9.830
 4399SOL    HW118044   0.458   5.938   9.768
 4399SOL    HW218045   0.389   5.970   9.913
 4400SOL     OW18046   0.770   6.916   9.611
 4400SOL    HW118047   0.724   6.829   9.628
 4400SOL    HW218048   0.861   6.913   9.652
 4401SOL     OW18049   1.352   5.638   9.478
 4401SOL    HW118050   1.387   5.597   9.394
 4401SOL    HW218051   1.262   5.600   9.498
 4402SOL     OW18052   0.039   6.663   9.610
 4402SOL    HW118053   0.138   6.652   9.601
 4402SOL    HW218054  -0.001   6.577   9.642
 4403SOL     OW18055   0.230   8.076   0.113
 4403SOL    HW118056   0.137   8.074   0.150
 4403SOL    HW218057   0.231   8.037   0.021
 4404SOL     OW18058   0.225   7.723   0.996
 4404SOL    HW118059   0.260   7.706   1.088
 4404SOL    HW218060   0.137   7.678   0.984
 4405SOL     OW18061   0.019   7.816   0.647
 4405SOL    HW118062  -0.063   7.859   0.686
 4405SOL    HW218063  -0.009   7.743   0.584
 4406SOL     OW18064   0.569   8.723   1.165
 4406SOL    HW118065   0.476   8.716   1.128
 4406SOL    HW218066   0.580   8.812   1.209
 4407SOL     OW18067   1.555   8.959   0.703
 4407SOL    HW118068   1.498   8.943   0.784
 4407SOL    HW218069   1.496   8.969   0.623
 4408SOL     OW18070   1.135   8.151   0.717
 4408SOL    HW118071   1.192   8.229   0.692
 4408SOL    HW218072   1.075   8.177   0.793
 4409SOL     OW18073   1.755   8.055   0.231
 4409SOL    HW118074   1.743   8.042   0.132
 4409SOL    HW218075   1.725   7.974   0.280
 4410SOL     OW18076   0.768   8.592   1.023
 4410SOL    HW118077   0.690   8.609   1.083
 4410SOL    HW218078   0.802   8.679   0.987
 4411SOL     OW18079   0.850   8.246   1.823
 4411SOL    HW118080   0.846   8.322   1.888
 4411SOL    HW218081   0.872   8.282   1.732
 4412SOL     OW18082   0.685   8.460   0.665
 4412SOL    HW118083   0.754   8.444   0.735
 4412SOL    HW218084   0.612   8.517   0.703
 4413SOL     OW18085   1.460   8.953   1.339
 4413SOL    HW118086   1.484   9.047   1.365
 4413SOL    HW218087   1.444   8.899   1.421
 4414SOL     OW18088   0.438   7.840   1.499
 4414SOL    HW118089   0.520   7.784   1.508
 4414SOL    HW218090   0.357   7.782   1.503
 4415SOL     OW18091   1.603   7.895   0.737
 4415SOL    HW118092   1.529   7.941   0.687
 4415SOL    HW218093   1.654   7.963   0.790
 4416SOL     OW18094   0.231   9.161   0.483
 4416SOL    HW118095   0.265   9.238   0.537
 4416SOL    HW218096   0.275   9.161   0.393
 4417SOL     OW18097   1.127   8.789   1.690
 4417SOL    HW118098   1.174   8.789   1.778
 4417SOL    HW218099   1.079   8.702   1.679
 4418SOL     OW18100   0.230   8.882   0.538
 4418SOL    HW118101   0.204   8.978   0.538
 4418SOL    HW218102   0.159   8.828   0.583
 4419SOL     OW18103   0.240   8.539   0.886
 4419SOL    HW118104   0.254   8.455   0.938
 4419SOL    HW218105   0.185   8.603   0.941
 4420SOL     OW18106   0.606   8.412   0.123
 4420SOL    HW118107   0.613   8.496   0.069
 4420SOL    HW218108   0.652   8.425   0.211
 4421SOL     OW18109   1.594   7.562   1.480
 4421SOL    HW118110   1.576   7.629   1.408
 4421SOL    HW218111   1.591   7.608   1.569
 4422SOL     OW18112   0.122   8.091   0.563
 4422SOL    HW118113   0.077   8.003   0.580
 4422SOL    HW218114   0.121   8.145   0.647
 4423SOL     OW18115   1.842   9.215   0.359
 4423SOL    HW118116   1.896   9.186   0.439
 4423SOL    HW218117   1.872   9.305   0.330
 4424SOL     OW18118   0.027   9.044   0.117
 4424SOL    HW118119   0.008   8.948   0.138
 4424SOL    HW218120  -0.006   9.102   0.192
 4425SOL     OW18121   1.689   8.370   0.612
 4425SOL    HW118122   1.784   8.341   0.620
 4425SOL    HW218123   1.681   8.435   0.537
 4426SOL     OW18124   1.641   8.556   0.432
 4426SOL    HW118125   1.727   8.558   0.380
 4426SOL    HW218126   1.655   8.603   0.520
 4427SOL     OW18127   0.113   8.185   1.597
 4427SOL    HW118128   0.201   8.172   1.642
 4427SOL    HW218129   0.100   8.282   1.575
 4428SOL     OW18130   0.613   8.813   0.726
 4428SOL    HW118131   0.564   8.726   0.735
 4428SOL    HW218132   0.590   8.856   0.639
 4429SOL     OW18133   1.293   8.676   1.423
 4429SOL    HW118134   1.330   8.603   1.365
 4429SOL    HW218135   1.345   8.681   1.508
 4430SOL     OW18136   0.197   8.424   1.264
 4430SOL    HW118137   0.286   8.379   1.250
 4430SOL    HW218138   0.124   8.359   1.245
 4431SOL     OW18139   1.525   8.447   0.190
 4431SOL    HW118140   1.462   8.371   0.203
 4431SOL    HW218141   1.573   8.465   0.276
 4432SOL     OW18142   1.187   9.240   1.616
 4432SOL    HW118143   1.211   9.300   1.540
 4432SOL    HW218144   1.194   9.145   1.586
 4433SOL     OW18145   1.466   8.865   0.953
 4433SOL    HW118146   1.407   8.871   1.033
 4433SOL    HW218147   1.451   8.777   0.907
 4434SOL     OW18148   1.667   9.162   0.572
 4434SOL    HW118149   1.626   9.139   0.484
 4434SOL    HW218150   1.649   9.088   0.637
 4435SOL     OW18151   0.598   8.177   0.270
 4435SOL    HW118152   0.622   8.246   0.202
 4435SOL    HW218153   0.520   8.210   0.324
 4436SOL     OW18154   1.281   7.793   0.944
 4436SOL    HW118155   1.195   7.743   0.931
 4436SOL    HW218156   1.343   7.739   1.000
 4437SOL     OW18157   1.576   9.110   0.307
 4437SOL    HW118158   1.665   9.156   0.310
 4437SOL    HW218159   1.555   9.086   0.212
 4438SOL     OW18160   0.807   8.053   1.465
 4438SOL    HW118161   0.760   8.050   1.554
 4438SOL    HW218162   0.756   7.998   1.399
 4439SOL     OW18163   1.394   7.917   1.674
 4439SOL    HW118164   1.374   7.960   1.762
 4439SOL    HW218165   1.472   7.855   1.683
 4440SOL     OW18166   0.973   8.338   1.572
 4440SOL    HW118167   1.019   8.254   1.543
 4440SOL    HW218168   0.917   8.372   1.497
 4441SOL     OW18169   0.991   7.858   1.242
 4441SOL    HW118170   0.914   7.892   1.296
 4441SOL    HW218171   0.957   7.807   1.163
 4442SOL     OW18172   1.041   8.149   0.429
 4442SOL    HW118173   1.067   8.145   0.525
 4442SOL    HW218174   0.956   8.098   0.415
 4443SOL     OW18175   0.076   8.259   0.789
 4443SOL    HW118176   0.175   8.247   0.798
 4443SOL    HW218177   0.052   8.354   0.810
 4444SOL     OW18178   0.130   9.269   1.571
 4444SOL    HW118179   0.120   9.254   1.670
 4444SOL    HW218180   0.044   9.305   1.535
 4445SOL     OW18181   0.865   7.796   0.195
 4445SOL    HW118182   0.924   7.859   0.146
 4445SOL    HW218183   0.884   7.702   0.166
 4446SOL     OW18184   1.719   8.033   1.831
 4446SOL    HW118185   1.693   8.122   1.795
 4446SOL    HW218186   1.717   7.965   1.758
 4447SOL     OW18187   1.362   8.592   0.545
 4447SOL    HW118188   1.445   8.563   0.497
 4447SOL    HW218189   1.313   8.659   0.489
 4448SOL     OW18190   0.550   7.644   0.885
 4448SOL    HW118191   0.545   7.639   0.985
 4448SOL    HW218192   0.552   7.740   0.856
 4449SOL     OW18193   1.008   8.904   0.477
 4449SOL    HW118194   0.962   8.976   0.425
 4449SOL    HW218195   1.004   8.924   0.575
 4450SOL     OW18196   0.351   9.249   0.853
 4450SOL    HW118197   0.401   9.163   0.859
 4450SOL    HW218198   0.416   9.326   0.850
 4451SOL     OW18199   1.795   8.514   0.873
 4451SOL    HW118200   1.733   8.499   0.797
 4451SOL    HW218201   1.743   8.525   0.958
 4452SOL     OW18202   1.227   8.998   1.506
 4452SOL    HW118203   1.233   8.921   1.570
 4452SOL    HW218204   1.175   8.972   1.426
 4453SOL     OW18205   0.321   8.391   0.242
 4453SOL    HW118206   0.403   8.430   0.200
 4453SOL    HW218207   0.294   8.309   0.193
 4454SOL     OW18208   1.458   8.183   0.728
 4454SOL    HW118209   1.453   8.118   0.803
 4454SOL    HW218210   1.538   8.242   0.741
 4455SOL     OW18211   1.111   9.224   0.237
 4455SOL    HW118212   1.051   9.162   0.287
 4455SOL    HW218213   1.142   9.180   0.152
 4456SOL     OW18214   0.202   7.733   1.498
 4456SOL    HW118215   0.122   7.793   1.485
 4456SOL    HW218216   0.192   7.684   1.584
 4457SOL     OW18217   1.632   8.825   0.081
 4457SOL    HW118218   1.600   8.919   0.071
 4457SOL    HW218219   1.556   8.762   0.069
 4458SOL     OW18220   0.464   9.191   0.323
 4458SOL    HW118221   0.497   9.230   0.409
 4458SOL    HW218222   0.540   9.184   0.258
 4459SOL     OW18223   1.400   7.555   0.426
 4459SOL    HW118224   1.376   7.518   0.336
 4459SOL    HW218225   1.499   7.571   0.430
 4460SOL     OW18226   0.940   9.146   0.904
 4460SOL    HW118227   1.020   9.089   0.925
 4460SOL    HW218228   0.891   9.106   0.827
 4461SOL     OW18229   0.382   8.148   0.480
 4461SOL    HW118230   0.427   8.058   0.477
 4461SOL    HW218231   0.288   8.137   0.513
 4462SOL     OW18232   1.547   7.670   1.729
 4462SOL    HW118233   1.542   7.707   1.821
 4462SOL    HW218234   1.475   7.601   1.717
 4463SOL     OW18235   0.614   7.570   0.117
 4463SOL    HW118236   0.712   7.548   0.124
 4463SOL    HW218237   0.583   7.553   0.024
 4464SOL     OW18238   0.781   7.712   1.749
 4464SOL    HW118239   0.848   7.651   1.792
 4464SOL    HW218240   0.708   7.731   1.814
 4465SOL     OW18241   1.351   8.038   1.433
 4465SOL    HW118242   1.379   7.995   1.518
 4465SOL    HW218243   1.376   8.134   1.434
 4466SOL     OW18244   0.803   8.850   0.924
 4466SOL    HW118245   0.893   8.864   0.882
 4466SOL    HW218246   0.732   8.852   0.853
 4467SOL     OW18247   0.922   7.951   0.899
 4467SOL    HW118248   0.897   7.942   0.803
 4467SOL    HW218249   0.970   7.869   0.930
 4468SOL     OW18250   0.539   7.512   0.512
 4468SOL    HW118251   0.458   7.513   0.570
 4468SOL    HW218252   0.542   7.595   0.457
 4469SOL     OW18253   1.434   8.636   0.041
 4469SOL    HW118254   1.466   8.560   0.098
 4469SOL    HW218255   1.342   8.663   0.071
 4470SOL     OW18256   0.935   7.684   0.480
 4470SOL    HW118257   0.887   7.725   0.402
 4470SOL    HW218258   1.034   7.682   0.461
 4471SOL     OW18259   1.076   8.131   1.464
 4471SOL    HW118260   0.996   8.070   1.467
 4471SOL    HW218261   1.157   8.078   1.440
 4472SOL     OW18262   1.227   9.018   0.793
 4472SOL    HW118263   1.248   9.092   0.728
 4472SOL    HW218264   1.295   9.018   0.866
 4473SOL     OW18265   0.459   8.600   0.741
 4473SOL    HW118266   0.388   8.573   0.806
 4473SOL    HW218267   0.433   8.572   0.648
 4474SOL     OW18268   1.271   9.245   0.591
 4474SOL    HW118269   1.315   9.309   0.527
 4474SOL    HW218270   1.221   9.297   0.661
 4475SOL     OW18271   1.032   7.997   0.016
 4475SOL    HW118272   0.991   8.079  -0.023
 4475SOL    HW218273   1.096   8.023   0.089
 4476SOL     OW18274   0.078   8.004   1.386
 4476SOL    HW118275   0.170   8.003   1.345
 4476SOL    HW218276   0.072   8.078   1.453
 4477SOL     OW18277   0.866   7.902   0.642
 4477SOL    HW118278   0.834   7.974   0.580
 4477SOL    HW218279   0.890   7.821   0.589
 4478SOL     OW18280   1.429   8.621   0.867
 4478SOL    HW118281   1.374   8.537   0.860
 4478SOL    HW218282   1.455   8.650   0.775
 4479SOL     OW18283   1.466   8.038   0.992
 4479SOL    HW118284   1.436   7.943   0.999
 4479SOL    HW218285   1.539   8.054   1.058
 4480SOL     OW18286   0.488   8.833   0.174
 4480SOL    HW118287   0.401   8.818   0.221
 4480SOL    HW218288   0.471   8.859   0.079
 4481SOL     OW18289   1.664   8.728   0.657
 4481SOL    HW118290   1.763   8.736   0.671
 4481SOL    HW218291   1.619   8.812   0.688
 4482SOL     OW18292   1.390   8.023   0.078
 4482SOL    HW118293   1.336   8.002   0.159
 4482SOL    HW218294   1.481   7.982   0.087
 4483SOL     OW18295   0.527   7.704   0.328
 4483SOL    HW118296   0.554   7.645   0.253
 4483SOL    HW218297   0.527   7.799   0.297
 4484SOL     OW18298   1.754   8.671   1.588
 4484SOL    HW118299   1.845   8.632   1.575
 4484SOL    HW218300   1.762   8.767   1.612
 4485SOL     OW18301   1.064   8.795   1.340
 4485SOL    HW118302   0.984   8.772   1.395
 4485SOL    HW218303   1.147   8.769   1.389
 4486SOL     OW18304   1.592   9.077   1.625
 4486SOL    HW118305   1.619   9.111   1.535
 4486SOL    HW218306   1.671   9.039   1.671
 4487SOL     OW18307   1.111   8.643   1.100
 4487SOL    HW118308   1.071   8.687   1.181
 4487SOL    HW218309   1.070   8.680   1.017
 4488SOL     OW18310   1.638   8.547   1.079
 4488SOL    HW118311   1.643   8.628   1.138
 4488SOL    HW218312   1.552   8.549   1.028
 4489SOL     OW18313   0.915   7.537   1.402
 4489SOL    HW118314   0.940   7.517   1.307
 4489SOL    HW218315   0.987   7.593   1.444
 4490SOL     OW18316   0.705   8.498   0.368
 4490SOL    HW118317   0.691   8.505   0.467
 4490SOL    HW218318   0.789   8.447   0.350
 4491SOL     OW18319   0.410   8.261   1.251
 4491SOL    HW118320   0.496   8.273   1.301
 4491SOL    HW218321   0.368   8.174   1.278
 4492SOL     OW18322   1.274   7.834   1.262
 4492SOL    HW118323   1.295   7.908   1.326
 4492SOL    HW218324   1.185   7.851   1.219
 4493SOL     OW18325   0.367   8.548   0.501
 4493SOL    HW118326   0.360   8.631   0.445
 4493SOL    HW218327   0.371   8.468   0.441
 4494SOL     OW18328   0.566   7.985   0.865
 4494SOL    HW118329   0.578   8.051   0.791
 4494SOL    HW218330   0.612   8.019   0.948
 4495SOL     OW18331   1.252   8.796   0.388
 4495SOL    HW118332   1.302   8.873   0.428
 4495SOL    HW218333   1.157   8.798   0.420
 4496SOL     OW18334   1.272   8.893   1.142
 4496SOL    HW118335   1.319   8.906   1.229
 4496SOL    HW218336   1.206   8.819   1.151
 4497SOL     OW18337   1.582   8.087   0.472
 4497SOL    HW118338   1.551   8.148   0.545
 4497SOL    HW218339   1.632   8.139   0.403
 4498SOL     OW18340   0.402   8.199   1.598
 4498SOL    HW118341   0.470   8.254   1.551
 4498SOL    HW218342   0.442   8.111   1.625
 4499SOL     OW18343   1.587   8.227   1.670
 4499SOL    HW118344   1.495   8.265   1.665
 4499SOL    HW218345   1.647   8.274   1.605
 4500SOL     OW18346   1.013   7.553   1.770
 4500SOL    HW118347   1.019   7.638   1.718
 4500SOL    HW218348   1.045   7.477   1.713
 4501SOL     OW18349   0.573   8.318   1.029
 4501SOL    HW118350   0.617   8.407   1.020
 4501SOL    HW218351   0.510   8.318   1.106
 4502SOL     OW18352   1.360   8.310   1.045
 4502SOL    HW118353   1.285   8.310   0.979
 4502SOL    HW218354   1.397   8.218   1.054
 4503SOL     OW18355   1.209   7.973   0.275
 4503SOL    HW118356   1.222   7.889   0.329
 4503SOL    HW218357   1.180   8.047   0.335
 4504SOL     OW18358   0.307   7.661   1.231
 4504SOL    HW118359   0.284   7.698   1.321
 4504SOL    HW218360   0.277   7.566   1.225
 4505SOL     OW18361   0.037   8.758   1.282
 4505SOL    HW118362   0.090   8.709   1.350
 4505SOL    HW218363   0.059   8.856   1.287
 4506SOL     OW18364   0.732   8.082   1.064
 4506SOL    HW118365   0.791   8.056   0.988
 4506SOL    HW218366   0.704   8.178   1.053
 4507SOL     OW18367   1.728   8.383   1.854
 4507SOL    HW118368   1.682   8.376   1.765
 4507SOL    HW218369   1.666   8.427   1.920
 4508SOL     OW18370   0.307   7.511   0.618
 4508SOL    HW118371   0.296   7.605   0.651
 4508SOL    HW218372   0.302   7.448   0.695
 4509SOL     OW18373   1.622   7.815   0.374
 4509SOL    HW118374   1.624   7.739   0.438
 4509SOL    HW218375   1.574   7.892   0.414
 4510SOL     OW18376   1.023   8.214   0.966
 4510SOL    HW118377   1.038   8.235   1.062
 4510SOL    HW218378   0.993   8.119   0.957
 4511SOL     OW18379   0.980   9.021   1.700
 4511SOL    HW118380   0.960   9.065   1.612
 4511SOL    HW218381   1.019   8.930   1.684
 4512SOL     OW18382   1.859   8.966   1.605
 4512SOL    HW118383   1.873   8.993   1.510
 4512SOL    HW218384   1.942   8.988   1.658
 4513SOL     OW18385   1.540   7.722   0.125
 4513SOL    HW118386   1.479   7.647   0.148
 4513SOL    HW218387   1.562   7.774   0.208
 4514SOL     OW18388   1.303   8.286   0.042
 4514SOL    HW118389   1.337   8.193   0.057
 4514SOL    HW218390   1.321   8.313  -0.053
 4515SOL     OW18391   1.068   8.781   0.849
 4515SOL    HW118392   1.075   8.697   0.794
 4515SOL    HW218393   1.130   8.850   0.813
 4516SOL     OW18394   0.319   8.258   0.949
 4516SOL    HW118395   0.412   8.294   0.954
 4516SOL    HW218396   0.313   8.173   1.001
 4517SOL     OW18397   0.339   7.957   1.006
 4517SOL    HW118398   0.287   7.874   0.989
 4517SOL    HW218399   0.416   7.962   0.942
 4518SOL     OW18400   1.138   7.828   1.678
 4518SOL    HW118401   1.093   7.891   1.742
 4518SOL    HW218402   1.231   7.859   1.661
 4519SOL     OW18403   1.160   7.655   1.477
 4519SOL    HW118404   1.160   7.719   1.554
 4519SOL    HW218405   1.188   7.703   1.394
 4520SOL     OW18406   0.008   8.774   0.200
 4520SOL    HW118407  -0.085   8.795   0.169
 4520SOL    HW218408   0.018   8.675   0.213
 4521SOL     OW18409   0.504   9.016   0.910
 4521SOL    HW118410   0.570   9.090   0.919
 4521SOL    HW218411   0.548   8.937   0.868
 4522SOL     OW18412   1.002   8.244   1.238
 4522SOL    HW118413   1.043   8.212   1.324
 4522SOL    HW218414   0.906   8.217   1.235
 4523SOL     OW18415   0.040   7.992   1.114
 4523SOL    HW118416   0.125   7.959   1.073
 4523SOL    HW218417   0.053   8.007   1.212
 4524SOL     OW18418   1.369   8.398   1.660
 4524SOL    HW118419   1.408   8.487   1.680
 4524SOL    HW218420   1.379   8.378   1.563
 4525SOL     OW18421   0.815   8.020   0.325
 4525SOL    HW118422   0.822   7.931   0.279
 4525SOL    HW218423   0.721   8.054   0.317
 4526SOL     OW18424   1.657   8.052   1.206
 4526SOL    HW118425   1.619   7.983   1.268
 4526SOL    HW218426   1.739   8.016   1.162
 4527SOL     OW18427   0.252   9.012   1.744
 4527SOL    HW118428   0.222   9.069   1.820
 4527SOL    HW218429   0.245   8.915   1.770
 4528SOL     OW18430   0.671   7.912   1.269
 4528SOL    HW118431   0.637   7.823   1.239
 4528SOL    HW218432   0.697   7.966   1.189
 4529SOL     OW18433   0.473   7.948   0.191
 4529SOL    HW118434   0.534   8.028   0.195
 4529SOL    HW218435   0.378   7.979   0.198
 4530SOL     OW18436   0.159   8.585   1.466
 4530SOL    HW118437   0.181   8.524   1.542
 4530SOL    HW218438   0.169   8.536   1.380
 4531SOL     OW18439   1.347   8.507   1.234
 4531SOL    HW118440   1.371   8.444   1.160
 4531SOL    HW218441   1.257   8.547   1.216
 4532SOL     OW18442   1.302   8.303   0.309
 4532SOL    HW118443   1.216   8.272   0.351
 4532SOL    HW218444   1.298   8.289   0.210
 4533SOL     OW18445   1.759   9.195   1.154
 4533SOL    HW118446   1.820   9.225   1.081
 4533SOL    HW218447   1.721   9.106   1.132
 4534SOL     OW18448   1.252   9.179   1.128
 4534SOL    HW118449   1.336   9.184   1.074
 4534SOL    HW218450   1.229   9.083   1.146
 4535SOL     OW18451   0.903   7.534   0.133
 4535SOL    HW118452   0.954   7.535   0.047
 4535SOL    HW218453   0.959   7.492   0.204
 4536SOL     OW18454   1.726   7.583   0.523
 4536SOL    HW118455   1.799   7.566   0.456
 4536SOL    HW218456   1.695   7.496   0.561
 4537SOL     OW18457   1.388   9.021   0.477
 4537SOL    HW118458   1.455   9.033   0.403
 4537SOL    HW218459   1.348   9.110   0.500
 4538SOL     OW18460   0.130   9.242   1.851
 4538SOL    HW118461   0.089   9.168   1.904
 4538SOL    HW218462   0.194   9.293   1.909
 4539SOL     OW18463   1.280   8.375   0.672
 4539SOL    HW118464   1.340   8.294   0.674
 4539SOL    HW218465   1.320   8.444   0.612
 4540SOL     OW18466   0.830   8.721   1.422
 4540SOL    HW118467   0.825   8.754   1.517
 4540SOL    HW218468   0.744   8.740   1.376
 4541SOL     OW18469   0.672   9.064   0.154
 4541SOL    HW118470   0.681   9.074   0.055
 4541SOL    HW218471   0.632   8.975   0.175
 4542SOL     OW18472   1.650   9.168   1.394
 4542SOL    HW118473   1.703   9.178   1.310
 4542SOL    HW218474   1.623   9.258   1.428
 4543SOL     OW18475   0.263   7.774   0.720
 4543SOL    HW118476   0.184   7.825   0.686
 4543SOL    HW218477   0.254   7.759   0.818
 4544SOL     OW18478   1.194   9.060   0.031
 4544SOL    HW118479   1.200   8.967   0.068
 4544SOL    HW218480   1.135   9.060  -0.049
 4545SOL     OW18481   0.822   8.450   1.372
 4545SOL    HW118482   0.862   8.449   1.280
 4545SOL    HW218483   0.832   8.542   1.412
 4546SOL     OW18484   0.916   8.358   0.291
 4546SOL    HW118485   0.979   8.396   0.223
 4546SOL    HW218486   0.956   8.275   0.330
 4547SOL     OW18487   1.504   9.055   0.044
 4547SOL    HW118488   1.412   9.092   0.051
 4547SOL    HW218489   1.542   9.075  -0.046
 4548SOL     OW18490   0.372   8.736   1.490
 4548SOL    HW118491   0.359   8.829   1.456
 4548SOL    HW218492   0.288   8.684   1.477
 4549SOL     OW18493   1.614   8.740   1.289
 4549SOL    HW118494   1.674   8.743   1.369
 4549SOL    HW218495   1.539   8.804   1.302
 4550SOL     OW18496   1.039   8.546   0.696
 4550SOL    HW118497   0.969   8.499   0.750
 4550SOL    HW218498   1.098   8.478   0.653
 4551SOL     OW18499   1.014   7.684   0.971
 4551SOL    HW118500   1.006   7.648   0.878
 4551SOL    HW218501   1.012   7.608   1.036
 4552SOL     OW18502   0.590   8.935   0.491
 4552SOL    HW118503   0.632   8.877   0.421
 4552SOL    HW218504   0.546   9.014   0.447
 4553SOL     OW18505   0.255   8.796   0.290
 4553SOL    HW118506   0.159   8.797   0.263
 4553SOL    HW218507   0.267   8.849   0.374
 4554SOL     OW18508   0.105   8.461   1.726
 4554SOL    HW118509   0.028   8.428   1.780
 4554SOL    HW218510   0.190   8.431   1.768
 4555SOL     OW18511   0.672   7.651   1.489
 4555SOL    HW118512   0.762   7.635   1.449
 4555SOL    HW218513   0.680   7.656   1.588
 4556SOL     OW18514   0.075   7.793   0.033
 4556SOL    HW118515  -0.017   7.765   0.004
 4556SOL    HW218516   0.106   7.870  -0.023
 4557SOL     OW18517   1.440   8.304   1.398
 4557SOL    HW118518   1.383   8.356   1.335
 4557SOL    HW218519   1.536   8.316   1.374
 4558SOL     OW18520   0.072   7.614   0.318
 4558SOL    HW118521   0.055   7.697   0.264
 4558SOL    HW218522   0.162   7.577   0.296
 4559SOL     OW18523   1.183   8.783   0.119
 4559SOL    HW118524   1.084   8.772   0.121
 4559SOL    HW218525   1.217   8.798   0.212
 4560SOL     OW18526   0.613   8.290   1.431
 4560SOL    HW118527   0.669   8.371   1.414
 4560SOL    HW218528   0.672   8.210   1.434
 4561SOL     OW18529   1.493   9.215   0.959
 4561SOL    HW118530   1.526   9.279   0.890
 4561SOL    HW218531   1.559   9.209   1.034
 4562SOL     OW18532   0.716   8.013   1.708
 4562SOL    HW118533   0.735   8.078   1.782
 4562SOL    HW218534   0.776   7.933   1.717
 4563SOL     OW18535   1.450   8.668   1.633
 4563SOL    HW118536   1.441   8.658   1.732
 4563SOL    HW218537   1.546   8.661   1.607
 4564SOL     OW18538   0.390   9.189   1.560
 4564SOL    HW118539   0.299   9.230   1.558
 4564SOL    HW218540   0.383   9.095   1.592
 4565SOL     OW18541   1.674   8.331   1.254
 4565SOL    HW118542   1.647   8.242   1.217
 4565SOL    HW218543   1.675   8.399   1.181
 4566SOL     OW18544   1.225   7.773   0.449
 4566SOL    HW118545   1.290   7.699   0.438
 4566SOL    HW218546   1.245   7.823   0.533
 4567SOL     OW18547   0.594   8.193   0.652
 4567SOL    HW118548   0.644   8.278   0.633
 4567SOL    HW218549   0.506   8.195   0.604
 4568SOL     OW18550   1.777   7.790   1.642
 4568SOL    HW118551   1.760   7.821   1.548
 4568SOL    HW218552   1.693   7.753   1.680
 4569SOL     OW18553   1.730   8.382   1.517
 4569SOL    HW118554   1.768   8.473   1.532
 4569SOL    HW218555   1.722   8.365   1.418
 4570SOL     OW18556   0.859   8.822   0.016
 4570SOL    HW118557   0.813   8.837   0.104
 4570SOL    HW218558   0.903   8.907  -0.014
 4571SOL     OW18559   0.661   9.238   0.953
 4571SOL    HW118560   0.615   9.326   0.940
 4571SOL    HW218561   0.760   9.250   0.946
 4572SOL     OW18562   0.859   8.404   0.861
 4572SOL    HW118563   0.913   8.335   0.909
 4572SOL    HW218564   0.827   8.473   0.927
 4573SOL     OW18565   1.083   8.432   0.087
 4573SOL    HW118566   1.060   8.485   0.005
 4573SOL    HW218567   1.164   8.376   0.068
 4574SOL     OW18568   1.861   9.017   0.851
 4574SOL    HW118569   1.790   9.005   0.781
 4574SOL    HW218570   1.862   8.938   0.911
 4575SOL     OW18571   0.221   8.762   1.844
 4575SOL    HW118572   0.156   8.689   1.823
 4575SOL    HW218573   0.225   8.776   1.942
 4576SOL     OW18574   0.079   8.688   0.653
 4576SOL    HW118575   0.078   8.641   0.741
 4576SOL    HW218576   0.161   8.660   0.602
 4577SOL     OW18577   0.428   7.872   0.520
 4577SOL    HW118578   0.458   7.800   0.458
 4577SOL    HW218579   0.389   7.832   0.603
 4578SOL     OW18580   1.705   8.935   1.104
 4578SOL    HW118581   1.612   8.910   1.077
 4578SOL    HW218582   1.731   8.885   1.186
 4579SOL     OW18583   0.317   7.995   1.280
 4579SOL    HW118584   0.355   7.936   1.352
 4579SOL    HW218585   0.357   7.969   1.192
 4580SOL     OW18586   0.812   9.034   0.687
 4580SOL    HW118587   0.844   9.044   0.593
 4580SOL    HW218588   0.733   8.972   0.689
 4581SOL     OW18589   1.424   7.662   1.112
 4581SOL    HW118590   1.476   7.597   1.167
 4581SOL    HW218591   1.375   7.725   1.173
 4582SOL     OW18592   1.001   7.482   1.154
 4582SOL    HW118593   0.938   7.410   1.123
 4582SOL    HW218594   1.094   7.446   1.154
 4583SOL     OW18595   0.770   8.778   0.301
 4583SOL    HW118596   0.724   8.691   0.318
 4583SOL    HW218597   0.861   8.775   0.342
 4584SOL     OW18598   1.352   7.500   0.168
 4584SOL    HW118599   1.387   7.459   0.084
 4584SOL    HW218600   1.262   7.462   0.188
 4585SOL     OW18601   1.300   7.901   0.691
 4585SOL    HW118602   1.241   7.981   0.695
 4585SOL    HW218603   1.315   7.866   0.784
 4586SOL     OW18604   1.593   7.669   0.882
 4586SOL    HW118605   1.509   7.668   0.936
 4586SOL    HW218606   1.595   7.752   0.826
 4587SOL     OW18607   0.039   8.525   0.300
 4587SOL    HW118608   0.138   8.514   0.291
 4587SOL    HW218609  -0.001   8.439   0.332
 4588SOL     OW18610   0.875   9.094   0.337
 4588SOL    HW118611   0.798   9.059   0.283
 4588SOL    HW218612   0.843   9.165   0.399
 4589SOL     OW18613   0.225   7.723   2.858
 4589SOL    HW118614   0.260   7.706   2.950
 4589SOL    HW218615   0.137   7.678   2.846
 4590SOL     OW18616   0.019   7.816   2.509
 4590SOL    HW118617  -0.063   7.859   2.548
 4590SOL    HW218618  -0.009   7.743   2.446
 4591SOL     OW18619   0.569   8.723   3.027
 4591SOL    HW118620   0.476   8.716   2.990
 4591SOL    HW218621   0.580   8.812   3.071
 4592SOL     OW18622   1.555   8.959   2.565
 4592SOL    HW118623   1.498   8.943   2.646
 4592SOL    HW218624   1.496   8.969   2.485
 4593SOL     OW18625   1.135   8.151   2.579
 4593SOL    HW118626   1.192   8.229   2.554
 4593SOL    HW218627   1.075   8.177   2.655
 4594SOL     OW18628   1.755   8.055   2.093
 4594SOL    HW118629   1.743   8.042   1.994
 4594SOL    HW218630   1.725   7.974   2.142
 4595SOL     OW18631   0.768   8.592   2.885
 4595SOL    HW118632   0.690   8.609   2.945
 4595SOL    HW218633   0.802   8.679   2.849
 4596SOL     OW18634   0.685   8.460   2.527
 4596SOL    HW118635   0.754   8.444   2.597
 4596SOL    HW218636   0.612   8.517   2.565
 4597SOL     OW18637   0.686   8.609   3.665
 4597SOL    HW118638   0.746   8.688   3.679
 4597SOL    HW218639   0.600   8.640   3.624
 4598SOL     OW18640   0.335   8.883   2.923
 4598SOL    HW118641   0.257   8.852   2.870
 4598SOL    HW218642   0.393   8.941   2.866
 4599SOL     OW18643   1.460   8.953   3.201
 4599SOL    HW118644   1.484   9.047   3.227
 4599SOL    HW218645   1.444   8.899   3.283
 4600SOL     OW18646   0.438   7.840   3.361
 4600SOL    HW118647   0.520   7.784   3.370
 4600SOL    HW218648   0.357   7.782   3.365
 4601SOL     OW18649   1.603   7.895   2.599
 4601SOL    HW118650   1.529   7.941   2.549
 4601SOL    HW218651   1.654   7.963   2.652
 4602SOL     OW18652   0.231   9.161   2.345
 4602SOL    HW118653   0.265   9.238   2.399
 4602SOL    HW218654   0.275   9.161   2.255
 4603SOL     OW18655   1.127   8.789   3.552
 4603SOL    HW118656   1.174   8.789   3.640
 4603SOL    HW218657   1.079   8.702   3.541
 4604SOL     OW18658   0.230   8.882   2.400
 4604SOL    HW118659   0.204   8.978   2.400
 4604SOL    HW218660   0.159   8.828   2.445
 4605SOL     OW18661   0.240   8.539   2.748
 4605SOL    HW118662   0.254   8.455   2.800
 4605SOL    HW218663   0.185   8.603   2.803
 4606SOL     OW18664   0.620   9.234   3.301
 4606SOL    HW118665   0.528   9.217   3.336
 4606SOL    HW218666   0.648   9.326   3.327
 4607SOL     OW18667   1.594   7.562   3.342
 4607SOL    HW118668   1.576   7.629   3.270
 4607SOL    HW218669   1.591   7.608   3.431
 4608SOL     OW18670   0.122   8.091   2.425
 4608SOL    HW118671   0.077   8.003   2.442
 4608SOL    HW218672   0.121   8.145   2.509
 4609SOL     OW18673   1.842   9.215   2.221
 4609SOL    HW118674   1.896   9.186   2.301
 4609SOL    HW218675   1.872   9.305   2.192
 4610SOL     OW18676   0.027   9.044   1.979
 4610SOL    HW118677   0.008   8.948   2.000
 4610SOL    HW218678  -0.006   9.102   2.054
 4611SOL     OW18679   1.689   8.370   2.474
 4611SOL    HW118680   1.784   8.341   2.482
 4611SOL    HW218681   1.681   8.435   2.399
 4612SOL     OW18682   1.641   8.556   2.294
 4612SOL    HW118683   1.727   8.558   2.242
 4612SOL    HW218684   1.655   8.603   2.382
 4613SOL     OW18685   0.113   8.185   3.459
 4613SOL    HW118686   0.201   8.172   3.504
 4613SOL    HW218687   0.100   8.282   3.437
 4614SOL     OW18688   0.613   8.813   2.588
 4614SOL    HW118689   0.564   8.726   2.597
 4614SOL    HW218690   0.590   8.856   2.501
 4615SOL     OW18691   1.293   8.676   3.285
 4615SOL    HW118692   1.330   8.603   3.227
 4615SOL    HW218693   1.345   8.681   3.370
 4616SOL     OW18694   0.197   8.424   3.126
 4616SOL    HW118695   0.286   8.379   3.112
 4616SOL    HW218696   0.124   8.359   3.107
 4617SOL     OW18697   1.187   9.240   3.478
 4617SOL    HW118698   1.211   9.300   3.402
 4617SOL    HW218699   1.194   9.145   3.448
 4618SOL     OW18700   0.317   7.699   3.663
 4618SOL    HW118701   0.388   7.770   3.669
 4618SOL    HW218702   0.229   7.738   3.691
 4619SOL     OW18703   1.466   8.865   2.815
 4619SOL    HW118704   1.407   8.871   2.895
 4619SOL    HW218705   1.451   8.777   2.769
 4620SOL     OW18706   1.667   9.162   2.434
 4620SOL    HW118707   1.626   9.139   2.346
 4620SOL    HW218708   1.649   9.088   2.499
 4621SOL     OW18709   0.598   8.177   2.132
 4621SOL    HW118710   0.622   8.246   2.064
 4621SOL    HW218711   0.520   8.210   2.186
 4622SOL     OW18712   1.281   7.793   2.806
 4622SOL    HW118713   1.195   7.743   2.793
 4622SOL    HW218714   1.343   7.739   2.862
 4623SOL     OW18715   1.576   9.110   2.169
 4623SOL    HW118716   1.665   9.156   2.172
 4623SOL    HW218717   1.555   9.086   2.074
 4624SOL     OW18718   0.807   8.053   3.327
 4624SOL    HW118719   0.760   8.050   3.416
 4624SOL    HW218720   0.756   7.998   3.261
 4625SOL     OW18721   1.394   7.917   3.536
 4625SOL    HW118722   1.374   7.960   3.624
 4625SOL    HW218723   1.472   7.855   3.545
 4626SOL     OW18724   0.973   8.338   3.434
 4626SOL    HW118725   1.019   8.254   3.405
 4626SOL    HW218726   0.917   8.372   3.359
 4627SOL     OW18727   0.991   7.858   3.104
 4627SOL    HW118728   0.914   7.892   3.158
 4627SOL    HW218729   0.957   7.807   3.025
 4628SOL     OW18730   1.041   8.149   2.291
 4628SOL    HW118731   1.067   8.145   2.387
 4628SOL    HW218732   0.956   8.098   2.277
 4629SOL     OW18733   0.076   8.259   2.651
 4629SOL    HW118734   0.175   8.247   2.660
 4629SOL    HW218735   0.052   8.354   2.672
 4630SOL     OW18736   0.130   9.269   3.433
 4630SOL    HW118737   0.120   9.254   3.532
 4630SOL    HW218738   0.044   9.305   3.397
 4631SOL     OW18739   0.865   7.796   2.057
 4631SOL    HW118740   0.924   7.859   2.008
 4631SOL    HW218741   0.884   7.702   2.028
 4632SOL     OW18742   1.719   8.033   3.693
 4632SOL    HW118743   1.693   8.122   3.657
 4632SOL    HW218744   1.717   7.965   3.620
 4633SOL     OW18745   1.362   8.592   2.407
 4633SOL    HW118746   1.445   8.563   2.359
 4633SOL    HW218747   1.313   8.659   2.351
 4634SOL     OW18748   0.550   7.644   2.747
 4634SOL    HW118749   0.545   7.639   2.847
 4634SOL    HW218750   0.552   7.740   2.718
 4635SOL     OW18751   1.008   8.904   2.339
 4635SOL    HW118752   0.962   8.976   2.287
 4635SOL    HW218753   1.004   8.924   2.437
 4636SOL     OW18754   0.351   9.249   2.715
 4636SOL    HW118755   0.401   9.163   2.721
 4636SOL    HW218756   0.416   9.326   2.712
 4637SOL     OW18757   1.795   8.514   2.735
 4637SOL    HW118758   1.733   8.499   2.659
 4637SOL    HW218759   1.743   8.525   2.820
 4638SOL     OW18760   1.227   8.998   3.368
 4638SOL    HW118761   1.233   8.921   3.432
 4638SOL    HW218762   1.175   8.972   3.288
 4639SOL     OW18763   1.458   8.183   2.590
 4639SOL    HW118764   1.453   8.118   2.665
 4639SOL    HW218765   1.538   8.242   2.603
 4640SOL     OW18766   0.461   8.714   3.589
 4640SOL    HW118767   0.411   8.715   3.503
 4640SOL    HW218768   0.398   8.696   3.665
 4641SOL     OW18769   0.202   7.733   3.360
 4641SOL    HW118770   0.122   7.793   3.347
 4641SOL    HW218771   0.192   7.684   3.446
 4642SOL     OW18772   1.632   8.825   1.943
 4642SOL    HW118773   1.600   8.919   1.933
 4642SOL    HW218774   1.556   8.762   1.931
 4643SOL     OW18775   0.464   9.191   2.185
 4643SOL    HW118776   0.497   9.230   2.271
 4643SOL    HW218777   0.540   9.184   2.120
 4644SOL     OW18778   1.400   7.555   2.288
 4644SOL    HW118779   1.376   7.518   2.198
 4644SOL    HW218780   1.499   7.571   2.292
 4645SOL     OW18781   0.249   9.233   3.103
 4645SOL    HW118782   0.306   9.168   3.153
 4645SOL    HW218783   0.233   9.200   3.010
 4646SOL     OW18784   0.940   9.146   2.766
 4646SOL    HW118785   1.020   9.089   2.787
 4646SOL    HW218786   0.891   9.106   2.689
 4647SOL     OW18787   1.547   7.670   3.591
 4647SOL    HW118788   1.542   7.707   3.683
 4647SOL    HW218789   1.475   7.601   3.579
 4648SOL     OW18790   0.781   7.712   3.611
 4648SOL    HW118791   0.848   7.651   3.654
 4648SOL    HW218792   0.708   7.731   3.676
 4649SOL     OW18793   0.888   8.962   3.057
 4649SOL    HW118794   0.865   8.937   2.963
 4649SOL    HW218795   0.949   8.893   3.096
 4650SOL     OW18796   1.351   8.038   3.295
 4650SOL    HW118797   1.379   7.995   3.380
 4650SOL    HW218798   1.376   8.134   3.296
 4651SOL     OW18799   0.803   8.850   2.786
 4651SOL    HW118800   0.893   8.864   2.744
 4651SOL    HW218801   0.732   8.852   2.715
 4652SOL     OW18802   0.922   7.951   2.761
 4652SOL    HW118803   0.897   7.942   2.665
 4652SOL    HW218804   0.970   7.869   2.792
 4653SOL     OW18805   0.539   7.512   2.374
 4653SOL    HW118806   0.458   7.513   2.432
 4653SOL    HW218807   0.542   7.595   2.319
 4654SOL     OW18808   1.434   8.636   1.903
 4654SOL    HW118809   1.466   8.560   1.960
 4654SOL    HW218810   1.342   8.663   1.933
 4655SOL     OW18811   0.935   7.684   2.342
 4655SOL    HW118812   0.887   7.725   2.264
 4655SOL    HW218813   1.034   7.682   2.323
 4656SOL     OW18814   1.076   8.131   3.326
 4656SOL    HW118815   0.996   8.070   3.329
 4656SOL    HW218816   1.157   8.078   3.302
 4657SOL     OW18817   1.227   9.018   2.655
 4657SOL    HW118818   1.248   9.092   2.590
 4657SOL    HW218819   1.295   9.018   2.728
 4658SOL     OW18820   0.459   8.600   2.603
 4658SOL    HW118821   0.388   8.573   2.668
 4658SOL    HW218822   0.433   8.572   2.510
 4659SOL     OW18823   1.271   9.245   2.453
 4659SOL    HW118824   1.315   9.309   2.389
 4659SOL    HW218825   1.221   9.297   2.523
 4660SOL     OW18826   1.032   7.997   1.878
 4660SOL    HW118827   0.991   8.079   1.839
 4660SOL    HW218828   1.096   8.023   1.951
 4661SOL     OW18829   0.078   8.004   3.248
 4661SOL    HW118830   0.170   8.003   3.207
 4661SOL    HW218831   0.072   8.078   3.315
 4662SOL     OW18832   0.561   7.670   3.009
 4662SOL    HW118833   0.599   7.586   3.046
 4662SOL    HW218834   0.473   7.689   3.053
 4663SOL     OW18835   0.866   7.902   2.504
 4663SOL    HW118836   0.834   7.974   2.442
 4663SOL    HW218837   0.890   7.821   2.451
 4664SOL     OW18838   1.017   7.487   2.615
 4664SOL    HW118839   0.945   7.492   2.546
 4664SOL    HW218840   0.993   7.418   2.684
 4665SOL     OW18841   1.429   8.621   2.729
 4665SOL    HW118842   1.374   8.537   2.722
 4665SOL    HW218843   1.455   8.650   2.637
 4666SOL     OW18844   1.466   8.038   2.854
 4666SOL    HW118845   1.436   7.943   2.861
 4666SOL    HW218846   1.539   8.054   2.920
 4667SOL     OW18847   1.857   8.281   2.239
 4667SOL    HW118848   1.899   8.217   2.303
 4667SOL    HW218849   1.819   8.230   2.161
 4668SOL     OW18850   1.664   8.728   2.519
 4668SOL    HW118851   1.763   8.736   2.533
 4668SOL    HW218852   1.619   8.812   2.550
 4669SOL     OW18853   1.390   8.023   1.940
 4669SOL    HW118854   1.336   8.002   2.021
 4669SOL    HW218855   1.481   7.982   1.949
 4670SOL     OW18856   0.527   7.704   2.190
 4670SOL    HW118857   0.554   7.645   2.115
 4670SOL    HW218858   0.527   7.799   2.159
 4671SOL     OW18859   1.754   8.671   3.450
 4671SOL    HW118860   1.845   8.632   3.437
 4671SOL    HW218861   1.762   8.767   3.474
 4672SOL     OW18862   1.064   8.795   3.202
 4672SOL    HW118863   0.984   8.772   3.257
 4672SOL    HW218864   1.147   8.769   3.251
 4673SOL     OW18865   1.592   9.077   3.487
 4673SOL    HW118866   1.619   9.111   3.397
 4673SOL    HW218867   1.671   9.039   3.533
 4674SOL     OW18868   1.111   8.643   2.962
 4674SOL    HW118869   1.071   8.687   3.043
 4674SOL    HW218870   1.070   8.680   2.879
 4675SOL     OW18871   1.638   8.547   2.941
 4675SOL    HW118872   1.643   8.628   3.000
 4675SOL    HW218873   1.552   8.549   2.890
 4676SOL     OW18874   0.915   7.537   3.264
 4676SOL    HW118875   0.940   7.517   3.169
 4676SOL    HW218876   0.987   7.593   3.306
 4677SOL     OW18877   0.980   8.564   3.581
 4677SOL    HW118878   0.881   8.570   3.591
 4677SOL    HW218879   1.003   8.484   3.525
 4678SOL     OW18880   0.705   8.498   2.230
 4678SOL    HW118881   0.691   8.505   2.329
 4678SOL    HW218882   0.789   8.447   2.212
 4679SOL     OW18883   0.410   8.261   3.113
 4679SOL    HW118884   0.496   8.273   3.163
 4679SOL    HW218885   0.368   8.174   3.140
 4680SOL     OW18886   1.274   7.834   3.124
 4680SOL    HW118887   1.295   7.908   3.188
 4680SOL    HW218888   1.185   7.851   3.081
 4681SOL     OW18889   0.064   9.012   3.193
 4681SOL    HW118890   0.018   9.094   3.159
 4681SOL    HW218891   0.162   9.031   3.202
 4682SOL     OW18892   0.367   8.548   2.363
 4682SOL    HW118893   0.360   8.631   2.307
 4682SOL    HW218894   0.371   8.468   2.303
 4683SOL     OW18895   0.566   7.985   2.727
 4683SOL    HW118896   0.578   8.051   2.653
 4683SOL    HW218897   0.612   8.019   2.810
 4684SOL     OW18898   1.252   8.796   2.250
 4684SOL    HW118899   1.302   8.873   2.290
 4684SOL    HW218900   1.157   8.798   2.282
 4685SOL     OW18901   1.272   8.893   3.004
 4685SOL    HW118902   1.319   8.906   3.091
 4685SOL    HW218903   1.206   8.819   3.013
 4686SOL     OW18904   1.582   8.087   2.334
 4686SOL    HW118905   1.551   8.148   2.407
 4686SOL    HW218906   1.632   8.139   2.265
 4687SOL     OW18907   0.354   8.958   3.191
 4687SOL    HW118908   0.333   8.914   3.104
 4687SOL    HW218909   0.451   8.984   3.194
 4688SOL     OW18910   0.402   8.199   3.460
 4688SOL    HW118911   0.470   8.254   3.413
 4688SOL    HW218912   0.442   8.111   3.487
 4689SOL     OW18913   1.587   8.227   3.532
 4689SOL    HW118914   1.495   8.265   3.527
 4689SOL    HW218915   1.647   8.274   3.467
 4690SOL     OW18916   1.013   7.553   3.632
 4690SOL    HW118917   1.019   7.638   3.580
 4690SOL    HW218918   1.045   7.477   3.575
 4691SOL     OW18919   0.504   7.498   3.602
 4691SOL    HW118920   0.462   7.441   3.532
 4691SOL    HW218921   0.438   7.567   3.634
 4692SOL     OW18922   0.573   8.318   2.891
 4692SOL    HW118923   0.617   8.407   2.882
 4692SOL    HW218924   0.510   8.318   2.968
 4693SOL     OW18925   1.360   8.310   2.907
 4693SOL    HW118926   1.285   8.310   2.841
 4693SOL    HW218927   1.397   8.218   2.916
 4694SOL     OW18928   1.209   7.973   2.137
 4694SOL    HW118929   1.222   7.889   2.191
 4694SOL    HW218930   1.180   8.047   2.197
 4695SOL     OW18931   0.307   7.661   3.093
 4695SOL    HW118932   0.284   7.698   3.183
 4695SOL    HW218933   0.277   7.566   3.087
 4696SOL     OW18934   0.037   8.758   3.144
 4696SOL    HW118935   0.090   8.709   3.212
 4696SOL    HW218936   0.059   8.856   3.149
 4697SOL     OW18937   0.732   8.082   2.926
 4697SOL    HW118938   0.791   8.056   2.850
 4697SOL    HW218939   0.704   8.178   2.915
 4698SOL     OW18940   1.728   8.383   3.716
 4698SOL    HW118941   1.682   8.376   3.627
 4698SOL    HW218942   1.666   8.427   3.782
 4699SOL     OW18943   1.622   7.815   2.236
 4699SOL    HW118944   1.624   7.739   2.300
 4699SOL    HW218945   1.574   7.892   2.276
 4700SOL     OW18946   1.023   8.214   2.828
 4700SOL    HW118947   1.038   8.235   2.924
 4700SOL    HW218948   0.993   8.119   2.819
 4701SOL     OW18949   0.980   9.021   3.562
 4701SOL    HW118950   0.960   9.065   3.474
 4701SOL    HW218951   1.019   8.930   3.546
 4702SOL     OW18952   1.859   8.966   3.467
 4702SOL    HW118953   1.873   8.993   3.372
 4702SOL    HW218954   1.942   8.988   3.520
 4703SOL     OW18955   0.350   8.346   3.666
 4703SOL    HW118956   0.426   8.390   3.714
 4703SOL    HW218957   0.385   8.299   3.584
 4704SOL     OW18958   1.540   7.722   1.987
 4704SOL    HW118959   1.479   7.647   2.010
 4704SOL    HW218960   1.562   7.774   2.070
 4705SOL     OW18961   1.303   8.286   1.904
 4705SOL    HW118962   1.337   8.193   1.919
 4705SOL    HW218963   1.321   8.313   1.809
 4706SOL     OW18964   1.068   8.781   2.711
 4706SOL    HW118965   1.075   8.697   2.656
 4706SOL    HW218966   1.130   8.850   2.675
 4707SOL     OW18967   0.319   8.258   2.811
 4707SOL    HW118968   0.412   8.294   2.816
 4707SOL    HW218969   0.313   8.173   2.863
 4708SOL     OW18970   0.339   7.957   2.868
 4708SOL    HW118971   0.287   7.874   2.851
 4708SOL    HW218972   0.416   7.962   2.804
 4709SOL     OW18973   1.138   7.828   3.540
 4709SOL    HW118974   1.093   7.891   3.604
 4709SOL    HW218975   1.231   7.859   3.523
 4710SOL     OW18976   1.160   7.655   3.339
 4710SOL    HW118977   1.160   7.719   3.416
 4710SOL    HW218978   1.188   7.703   3.256
 4711SOL     OW18979   0.008   8.774   2.062
 4711SOL    HW118980  -0.085   8.795   2.031
 4711SOL    HW218981   0.018   8.675   2.075
 4712SOL     OW18982   0.088   9.249   2.789
 4712SOL    HW118983   0.046   9.163   2.762
 4712SOL    HW218984   0.182   9.252   2.755
 4713SOL     OW18985   0.504   9.016   2.772
 4713SOL    HW118986   0.570   9.090   2.781
 4713SOL    HW218987   0.548   8.937   2.730
 4714SOL     OW18988   1.002   8.244   3.100
 4714SOL    HW118989   1.043   8.212   3.186
 4714SOL    HW218990   0.906   8.217   3.097
 4715SOL     OW18991   0.040   7.992   2.976
 4715SOL    HW118992   0.125   7.959   2.935
 4715SOL    HW218993   0.053   8.007   3.074
 4716SOL     OW18994   0.189   7.968   3.584
 4716SOL    HW118995   0.248   7.928   3.514
 4716SOL    HW218996   0.131   8.039   3.543
 4717SOL     OW18997   1.369   8.398   3.522
 4717SOL    HW118998   1.408   8.487   3.542
 4717SOL    HW218999   1.379   8.378   3.425
 4718SOL     OW19000   0.815   8.020   2.187
 4718SOL    HW119001   0.822   7.931   2.141
 4718SOL    HW219002   0.721   8.054   2.179
 4719SOL     OW19003   1.657   8.052   3.068
 4719SOL    HW119004   1.619   7.983   3.130
 4719SOL    HW219005   1.739   8.016   3.024
 4720SOL     OW19006   0.252   9.012   3.606
 4720SOL    HW119007   0.222   9.069   3.682
 4720SOL    HW219008   0.245   8.915   3.632
 4721SOL     OW19009   0.671   7.912   3.131
 4721SOL    HW119010   0.637   7.823   3.101
 4721SOL    HW219011   0.697   7.966   3.051
 4722SOL     OW19012   0.930   9.126   3.327
 4722SOL    HW119013   0.906   9.108   3.232
 4722SOL    HW219014   0.960   9.220   3.337
 4723SOL     OW19015   0.159   8.585   3.328
 4723SOL    HW119016   0.181   8.524   3.404
 4723SOL    HW219017   0.169   8.536   3.242
 4724SOL     OW19018   1.347   8.507   3.096
 4724SOL    HW119019   1.371   8.444   3.022
 4724SOL    HW219020   1.257   8.547   3.078
 4725SOL     OW19021   1.302   8.303   2.171
 4725SOL    HW119022   1.216   8.272   2.213
 4725SOL    HW219023   1.298   8.289   2.072
 4726SOL     OW19024   1.759   9.195   3.016
 4726SOL    HW119025   1.820   9.225   2.943
 4726SOL    HW219026   1.721   9.106   2.994
 4727SOL     OW19027   1.252   9.179   2.990
 4727SOL    HW119028   1.336   9.184   2.936
 4727SOL    HW219029   1.229   9.083   3.008
 4728SOL     OW19030   0.083   8.706   2.884
 4728SOL    HW119031   0.078   8.705   2.984
 4728SOL    HW219032   0.000   8.665   2.846
 4729SOL     OW19033   0.688   9.110   3.578
 4729SOL    HW119034   0.632   9.191   3.587
 4729SOL    HW219035   0.740   9.114   3.492
 4730SOL     OW19036   1.726   7.583   2.385
 4730SOL    HW119037   1.799   7.566   2.318
 4730SOL    HW219038   1.695   7.496   2.423
 4731SOL     OW19039   1.388   9.021   2.339
 4731SOL    HW119040   1.455   9.033   2.265
 4731SOL    HW219041   1.348   9.110   2.362
 4732SOL     OW19042   1.280   8.375   2.534
 4732SOL    HW119043   1.340   8.294   2.536
 4732SOL    HW219044   1.320   8.444   2.474
 4733SOL     OW19045   0.830   8.721   3.284
 4733SOL    HW119046   0.825   8.754   3.379
 4733SOL    HW219047   0.744   8.740   3.238
 4734SOL     OW19048   1.650   9.168   3.256
 4734SOL    HW119049   1.703   9.178   3.172
 4734SOL    HW219050   1.623   9.258   3.290
 4735SOL     OW19051   1.841   7.623   2.825
 4735SOL    HW119052   1.880   7.538   2.789
 4735SOL    HW219053   1.743   7.625   2.806
 4736SOL     OW19054   0.263   7.774   2.582
 4736SOL    HW119055   0.184   7.825   2.548
 4736SOL    HW219056   0.254   7.759   2.680
 4737SOL     OW19057   1.194   9.060   1.893
 4737SOL    HW119058   1.200   8.967   1.930
 4737SOL    HW219059   1.135   9.060   1.813
 4738SOL     OW19060   0.822   8.450   3.234
 4738SOL    HW119061   0.862   8.449   3.142
 4738SOL    HW219062   0.832   8.542   3.274
 4739SOL     OW19063   0.916   8.358   2.153
 4739SOL    HW119064   0.979   8.396   2.085
 4739SOL    HW219065   0.956   8.275   2.192
 4740SOL     OW19066   1.504   9.055   1.906
 4740SOL    HW119067   1.412   9.092   1.913
 4740SOL    HW219068   1.542   9.075   1.816
 4741SOL     OW19069   0.372   8.736   3.352
 4741SOL    HW119070   0.359   8.829   3.318
 4741SOL    HW219071   0.288   8.684   3.339
 4742SOL     OW19072   1.614   8.740   3.151
 4742SOL    HW119073   1.674   8.743   3.231
 4742SOL    HW219074   1.539   8.804   3.164
 4743SOL     OW19075   1.039   8.546   2.558
 4743SOL    HW119076   0.969   8.499   2.612
 4743SOL    HW219077   1.098   8.478   2.515
 4744SOL     OW19078   1.014   7.684   2.833
 4744SOL    HW119079   1.006   7.648   2.740
 4744SOL    HW219080   1.012   7.608   2.898
 4745SOL     OW19081   0.590   8.935   2.353
 4745SOL    HW119082   0.632   8.877   2.283
 4745SOL    HW219083   0.546   9.014   2.309
 4746SOL     OW19084   1.709   7.833   3.243
 4746SOL    HW119085   1.782   7.902   3.247
 4746SOL    HW219086   1.737   7.758   3.184
 4747SOL     OW19087   0.255   8.796   2.152
 4747SOL    HW119088   0.159   8.797   2.125
 4747SOL    HW219089   0.267   8.849   2.236
 4748SOL     OW19090   0.105   8.461   3.588
 4748SOL    HW119091   0.028   8.428   3.642
 4748SOL    HW219092   0.190   8.431   3.630
 4749SOL     OW19093   0.672   7.651   3.351
 4749SOL    HW119094   0.762   7.635   3.311
 4749SOL    HW219095   0.680   7.656   3.450
 4750SOL     OW19096   1.440   8.304   3.260
 4750SOL    HW119097   1.383   8.356   3.197
 4750SOL    HW219098   1.536   8.316   3.236
 4751SOL     OW19099   1.183   8.783   1.981
 4751SOL    HW119100   1.084   8.772   1.983
 4751SOL    HW219101   1.217   8.798   2.074
 4752SOL     OW19102   0.613   8.290   3.293
 4752SOL    HW119103   0.669   8.371   3.276
 4752SOL    HW219104   0.672   8.210   3.296
 4753SOL     OW19105   1.493   9.215   2.821
 4753SOL    HW119106   1.526   9.279   2.752
 4753SOL    HW219107   1.559   9.209   2.896
 4754SOL     OW19108   0.716   8.013   3.570
 4754SOL    HW119109   0.735   8.078   3.644
 4754SOL    HW219110   0.776   7.933   3.579
 4755SOL     OW19111   0.390   9.189   3.422
 4755SOL    HW119112   0.299   9.230   3.420
 4755SOL    HW219113   0.383   9.095   3.454
 4756SOL     OW19114   1.674   8.331   3.116
 4756SOL    HW119115   1.647   8.242   3.079
 4756SOL    HW219116   1.675   8.399   3.043
 4757SOL     OW19117   1.225   7.773   2.311
 4757SOL    HW119118   1.290   7.699   2.300
 4757SOL    HW219119   1.245   7.823   2.395
 4758SOL     OW19120   0.594   8.193   2.514
 4758SOL    HW119121   0.644   8.278   2.495
 4758SOL    HW219122   0.506   8.195   2.466
 4759SOL     OW19123   1.777   7.790   3.504
 4759SOL    HW119124   1.760   7.821   3.410
 4759SOL    HW219125   1.693   7.753   3.542
 4760SOL     OW19126   1.730   8.382   3.379
 4760SOL    HW119127   1.768   8.473   3.394
 4760SOL    HW219128   1.722   8.365   3.280
 4761SOL     OW19129   0.661   9.238   2.815
 4761SOL    HW119130   0.615   9.326   2.802
 4761SOL    HW219131   0.760   9.250   2.808
 4762SOL     OW19132   0.859   8.404   2.723
 4762SOL    HW119133   0.913   8.335   2.771
 4762SOL    HW219134   0.827   8.473   2.789
 4763SOL     OW19135   1.083   8.432   1.949
 4763SOL    HW119136   1.060   8.485   1.867
 4763SOL    HW219137   1.164   8.376   1.930
 4764SOL     OW19138   1.861   9.017   2.713
 4764SOL    HW119139   1.790   9.005   2.643
 4764SOL    HW219140   1.862   8.938   2.773
 4765SOL     OW19141   0.079   8.688   2.515
 4765SOL    HW119142   0.078   8.641   2.603
 4765SOL    HW219143   0.161   8.660   2.464
 4766SOL     OW19144   0.672   8.839   3.486
 4766SOL    HW119145   0.594   8.789   3.524
 4766SOL    HW219146   0.669   8.934   3.517
 4767SOL     OW19147   1.824   7.640   3.089
 4767SOL    HW119148   1.820   7.550   3.133
 4767SOL    HW219149   1.827   7.629   2.990
 4768SOL     OW19150   0.428   7.872   2.382
 4768SOL    HW119151   0.458   7.800   2.320
 4768SOL    HW219152   0.389   7.832   2.465
 4769SOL     OW19153   1.705   8.935   2.966
 4769SOL    HW119154   1.612   8.910   2.939
 4769SOL    HW219155   1.731   8.885   3.048
 4770SOL     OW19156   0.317   7.995   3.142
 4770SOL    HW119157   0.355   7.936   3.214
 4770SOL    HW219158   0.357   7.969   3.054
 4771SOL     OW19159   0.812   9.034   2.549
 4771SOL    HW119160   0.844   9.044   2.455
 4771SOL    HW219161   0.733   8.972   2.551
 4772SOL     OW19162   1.424   7.662   2.974
 4772SOL    HW119163   1.476   7.597   3.029
 4772SOL    HW219164   1.375   7.725   3.035
 4773SOL     OW19165   1.001   7.482   3.016
 4773SOL    HW119166   0.938   7.410   2.985
 4773SOL    HW219167   1.094   7.446   3.016
 4774SOL     OW19168   0.770   8.778   2.163
 4774SOL    HW119169   0.724   8.691   2.180
 4774SOL    HW219170   0.861   8.775   2.204
 4775SOL     OW19171   0.618   9.015   3.146
 4775SOL    HW119172   0.613   9.097   3.203
 4775SOL    HW219173   0.707   9.012   3.101
 4776SOL     OW19174   1.352   7.500   2.030
 4776SOL    HW119175   1.387   7.459   1.946
 4776SOL    HW219176   1.262   7.462   2.050
 4777SOL     OW19177   1.300   7.901   2.553
 4777SOL    HW119178   1.241   7.981   2.557
 4777SOL    HW219179   1.315   7.866   2.646
 4778SOL     OW19180   1.593   7.669   2.744
 4778SOL    HW119181   1.509   7.668   2.798
 4778SOL    HW219182   1.595   7.752   2.688
 4779SOL     OW19183   0.039   8.525   2.162
 4779SOL    HW119184   0.138   8.514   2.153
 4779SOL    HW219185  -0.001   8.439   2.194
 4780SOL     OW19186   0.230   8.076   3.837
 4780SOL    HW119187   0.137   8.074   3.874
 4780SOL    HW219188   0.231   8.037   3.745
 4781SOL     OW19189   0.225   7.723   4.720
 4781SOL    HW119190   0.260   7.706   4.812
 4781SOL    HW219191   0.137   7.678   4.708
 4782SOL     OW19192   0.019   7.816   4.371
 4782SOL    HW119193  -0.063   7.859   4.410
 4782SOL    HW219194  -0.009   7.743   4.308
 4783SOL     OW19195   1.555   8.959   4.427
 4783SOL    HW119196   1.498   8.943   4.508
 4783SOL    HW219197   1.496   8.969   4.347
 4784SOL     OW19198   1.135   8.151   4.441
 4784SOL    HW119199   1.192   8.229   4.416
 4784SOL    HW219200   1.075   8.177   4.517
 4785SOL     OW19201   1.755   8.055   3.955
 4785SOL    HW119202   1.743   8.042   3.856
 4785SOL    HW219203   1.725   7.974   4.004
 4786SOL     OW19204   0.768   8.592   4.747
 4786SOL    HW119205   0.690   8.609   4.807
 4786SOL    HW219206   0.802   8.679   4.711
 4787SOL     OW19207   0.850   8.246   5.547
 4787SOL    HW119208   0.846   8.322   5.612
 4787SOL    HW219209   0.872   8.282   5.456
 4788SOL     OW19210   0.685   8.460   4.389
 4788SOL    HW119211   0.754   8.444   4.459
 4788SOL    HW219212   0.612   8.517   4.427
 4789SOL     OW19213   0.686   8.609   5.527
 4789SOL    HW119214   0.746   8.688   5.541
 4789SOL    HW219215   0.600   8.640   5.486
 4790SOL     OW19216   0.335   8.883   4.785
 4790SOL    HW119217   0.257   8.852   4.732
 4790SOL    HW219218   0.393   8.941   4.728
 4791SOL     OW19219   0.438   7.840   5.223
 4791SOL    HW119220   0.520   7.784   5.232
 4791SOL    HW219221   0.357   7.782   5.227
 4792SOL     OW19222   0.231   9.161   4.207
 4792SOL    HW119223   0.265   9.238   4.261
 4792SOL    HW219224   0.275   9.161   4.117
 4793SOL     OW19225   1.127   8.789   5.414
 4793SOL    HW119226   1.174   8.789   5.502
 4793SOL    HW219227   1.079   8.702   5.403
 4794SOL     OW19228   0.230   8.882   4.262
 4794SOL    HW119229   0.204   8.978   4.262
 4794SOL    HW219230   0.159   8.828   4.307
 4795SOL     OW19231   0.240   8.539   4.610
 4795SOL    HW119232   0.254   8.455   4.662
 4795SOL    HW219233   0.185   8.603   4.665
 4796SOL     OW19234   1.594   7.562   5.204
 4796SOL    HW119235   1.576   7.629   5.132
 4796SOL    HW219236   1.591   7.608   5.293
 4797SOL     OW19237   0.122   8.091   4.287
 4797SOL    HW119238   0.077   8.003   4.304
 4797SOL    HW219239   0.121   8.145   4.371
 4798SOL     OW19240   1.842   9.215   4.083
 4798SOL    HW119241   1.896   9.186   4.163
 4798SOL    HW219242   1.872   9.305   4.054
 4799SOL     OW19243   1.689   8.370   4.336
 4799SOL    HW119244   1.784   8.341   4.344
 4799SOL    HW219245   1.681   8.435   4.261
 4800SOL     OW19246   1.641   8.556   4.156
 4800SOL    HW119247   1.727   8.558   4.104
 4800SOL    HW219248   1.655   8.603   4.244
 4801SOL     OW19249   0.113   8.185   5.321
 4801SOL    HW119250   0.201   8.172   5.366
 4801SOL    HW219251   0.100   8.282   5.299
 4802SOL     OW19252   0.613   8.813   4.450
 4802SOL    HW119253   0.564   8.726   4.459
 4802SOL    HW219254   0.590   8.856   4.363
 4803SOL     OW19255   0.809   7.452   4.226
 4803SOL    HW119256   0.849   7.543   4.217
 4803SOL    HW219257   0.709   7.460   4.232
 4804SOL     OW19258   0.197   8.424   4.988
 4804SOL    HW119259   0.286   8.379   4.974
 4804SOL    HW219260   0.124   8.359   4.969
 4805SOL     OW19261   1.525   8.447   3.914
 4805SOL    HW119262   1.462   8.371   3.927
 4805SOL    HW219263   1.573   8.465   4.000
 4806SOL     OW19264   1.187   9.240   5.340
 4806SOL    HW119265   1.211   9.300   5.264
 4806SOL    HW219266   1.194   9.145   5.310
 4807SOL     OW19267   0.317   7.699   5.525
 4807SOL    HW119268   0.388   7.770   5.531
 4807SOL    HW219269   0.229   7.738   5.553
 4808SOL     OW19270   1.667   9.162   4.296
 4808SOL    HW119271   1.626   9.139   4.208
 4808SOL    HW219272   1.649   9.088   4.361
 4809SOL     OW19273   1.281   7.793   4.668
 4809SOL    HW119274   1.195   7.743   4.655
 4809SOL    HW219275   1.343   7.739   4.724
 4810SOL     OW19276   1.576   9.110   4.031
 4810SOL    HW119277   1.665   9.156   4.034
 4810SOL    HW219278   1.555   9.086   3.936
 4811SOL     OW19279   0.807   8.053   5.189
 4811SOL    HW119280   0.760   8.050   5.278
 4811SOL    HW219281   0.756   7.998   5.123
 4812SOL     OW19282   1.394   7.917   5.398
 4812SOL    HW119283   1.374   7.960   5.486
 4812SOL    HW219284   1.472   7.855   5.407
 4813SOL     OW19285   0.973   8.338   5.296
 4813SOL    HW119286   1.019   8.254   5.267
 4813SOL    HW219287   0.917   8.372   5.221
 4814SOL     OW19288   0.991   7.858   4.966
 4814SOL    HW119289   0.914   7.892   5.020
 4814SOL    HW219290   0.957   7.807   4.887
 4815SOL     OW19291   1.041   8.149   4.153
 4815SOL    HW119292   1.067   8.145   4.249
 4815SOL    HW219293   0.956   8.098   4.139
 4816SOL     OW19294   0.076   8.259   4.513
 4816SOL    HW119295   0.175   8.247   4.522
 4816SOL    HW219296   0.052   8.354   4.534
 4817SOL     OW19297   0.130   9.269   5.295
 4817SOL    HW119298   0.120   9.254   5.394
 4817SOL    HW219299   0.044   9.305   5.259
 4818SOL     OW19300   1.362   8.592   4.269
 4818SOL    HW119301   1.445   8.563   4.221
 4818SOL    HW219302   1.313   8.659   4.213
 4819SOL     OW19303   0.550   7.644   4.609
 4819SOL    HW119304   0.545   7.639   4.709
 4819SOL    HW219305   0.552   7.740   4.580
 4820SOL     OW19306   1.008   8.904   4.201
 4820SOL    HW119307   0.962   8.976   4.149
 4820SOL    HW219308   1.004   8.924   4.299
 4821SOL     OW19309   1.795   8.514   4.597
 4821SOL    HW119310   1.733   8.499   4.521
 4821SOL    HW219311   1.743   8.525   4.682
 4822SOL     OW19312   1.227   8.998   5.230
 4822SOL    HW119313   1.233   8.921   5.294
 4822SOL    HW219314   1.175   8.972   5.150
 4823SOL     OW19315   1.458   8.183   4.452
 4823SOL    HW119316   1.453   8.118   4.527
 4823SOL    HW219317   1.538   8.242   4.465
 4824SOL     OW19318   1.111   9.224   3.961
 4824SOL    HW119319   1.051   9.162   4.011
 4824SOL    HW219320   1.142   9.180   3.876
 4825SOL     OW19321   0.202   7.733   5.222
 4825SOL    HW119322   0.122   7.793   5.209
 4825SOL    HW219323   0.192   7.684   5.308
 4826SOL     OW19324   1.632   8.825   3.805
 4826SOL    HW119325   1.600   8.919   3.795
 4826SOL    HW219326   1.556   8.762   3.793
 4827SOL     OW19327   0.464   9.191   4.047
 4827SOL    HW119328   0.497   9.230   4.133
 4827SOL    HW219329   0.540   9.184   3.982
 4828SOL     OW19330   1.400   7.555   4.150
 4828SOL    HW119331   1.376   7.518   4.060
 4828SOL    HW219332   1.499   7.571   4.154
 4829SOL     OW19333   0.940   9.146   4.628
 4829SOL    HW119334   1.020   9.089   4.649
 4829SOL    HW219335   0.891   9.106   4.551
 4830SOL     OW19336   0.382   8.148   4.204
 4830SOL    HW119337   0.427   8.058   4.201
 4830SOL    HW219338   0.288   8.137   4.237
 4831SOL     OW19339   1.547   7.670   5.453
 4831SOL    HW119340   1.542   7.707   5.545
 4831SOL    HW219341   1.475   7.601   5.441
 4832SOL     OW19342   0.614   7.570   3.841
 4832SOL    HW119343   0.712   7.548   3.848
 4832SOL    HW219344   0.583   7.553   3.748
 4833SOL     OW19345   0.888   8.962   4.919
 4833SOL    HW119346   0.865   8.937   4.825
 4833SOL    HW219347   0.949   8.893   4.958
 4834SOL     OW19348   1.351   8.038   5.157
 4834SOL    HW119349   1.379   7.995   5.242
 4834SOL    HW219350   1.376   8.134   5.158
 4835SOL     OW19351   0.803   8.850   4.648
 4835SOL    HW119352   0.893   8.864   4.606
 4835SOL    HW219353   0.732   8.852   4.577
 4836SOL     OW19354   0.922   7.951   4.623
 4836SOL    HW119355   0.897   7.942   4.527
 4836SOL    HW219356   0.970   7.869   4.654
 4837SOL     OW19357   0.539   7.512   4.236
 4837SOL    HW119358   0.458   7.513   4.294
 4837SOL    HW219359   0.542   7.595   4.181
 4838SOL     OW19360   1.434   8.636   3.765
 4838SOL    HW119361   1.466   8.560   3.822
 4838SOL    HW219362   1.342   8.663   3.795
 4839SOL     OW19363   0.297   7.483   3.895
 4839SOL    HW119364   0.346   7.567   3.874
 4839SOL    HW219365   0.359   7.418   3.940
 4840SOL     OW19366   0.935   7.684   4.204
 4840SOL    HW119367   0.887   7.725   4.126
 4840SOL    HW219368   1.034   7.682   4.185
 4841SOL     OW19369   1.076   8.131   5.188
 4841SOL    HW119370   0.996   8.070   5.191
 4841SOL    HW219371   1.157   8.078   5.164
 4842SOL     OW19372   1.227   9.018   4.517
 4842SOL    HW119373   1.248   9.092   4.452
 4842SOL    HW219374   1.295   9.018   4.590
 4843SOL     OW19375   0.459   8.600   4.465
 4843SOL    HW119376   0.388   8.573   4.530
 4843SOL    HW219377   0.433   8.572   4.372
 4844SOL     OW19378   1.271   9.245   4.315
 4844SOL    HW119379   1.315   9.309   4.251
 4844SOL    HW219380   1.221   9.297   4.385
 4845SOL     OW19381   0.078   8.004   5.110
 4845SOL    HW119382   0.170   8.003   5.069
 4845SOL    HW219383   0.072   8.078   5.177
 4846SOL     OW19384   0.561   7.670   4.871
 4846SOL    HW119385   0.599   7.586   4.908
 4846SOL    HW219386   0.473   7.689   4.915
 4847SOL     OW19387   0.866   7.902   4.366
 4847SOL    HW119388   0.834   7.974   4.304
 4847SOL    HW219389   0.890   7.821   4.313
 4848SOL     OW19390   1.429   8.621   4.591
 4848SOL    HW119391   1.374   8.537   4.584
 4848SOL    HW219392   1.455   8.650   4.499
 4849SOL     OW19393   1.466   8.038   4.716
 4849SOL    HW119394   1.436   7.943   4.723
 4849SOL    HW219395   1.539   8.054   4.782
 4850SOL     OW19396   1.857   8.281   4.101
 4850SOL    HW119397   1.899   8.217   4.165
 4850SOL    HW219398   1.819   8.230   4.023
 4851SOL     OW19399   1.664   8.728   4.381
 4851SOL    HW119400   1.763   8.736   4.395
 4851SOL    HW219401   1.619   8.812   4.412
 4852SOL     OW19402   1.390   8.023   3.802
 4852SOL    HW119403   1.336   8.002   3.883
 4852SOL    HW219404   1.481   7.982   3.811
 4853SOL     OW19405   0.527   7.704   4.052
 4853SOL    HW119406   0.554   7.645   3.977
 4853SOL    HW219407   0.527   7.799   4.021
 4854SOL     OW19408   1.754   8.671   5.312
 4854SOL    HW119409   1.845   8.632   5.299
 4854SOL    HW219410   1.762   8.767   5.336
 4855SOL     OW19411   1.064   8.795   5.064
 4855SOL    HW119412   0.984   8.772   5.119
 4855SOL    HW219413   1.147   8.769   5.113
 4856SOL     OW19414   1.592   9.077   5.349
 4856SOL    HW119415   1.619   9.111   5.259
 4856SOL    HW219416   1.671   9.039   5.395
 4857SOL     OW19417   1.111   8.643   4.824
 4857SOL    HW119418   1.071   8.687   4.905
 4857SOL    HW219419   1.070   8.680   4.741
 4858SOL     OW19420   0.915   7.537   5.126
 4858SOL    HW119421   0.940   7.517   5.031
 4858SOL    HW219422   0.987   7.593   5.168
 4859SOL     OW19423   0.980   8.564   5.443
 4859SOL    HW119424   0.881   8.570   5.453
 4859SOL    HW219425   1.003   8.484   5.387
 4860SOL     OW19426   0.705   8.498   4.092
 4860SOL    HW119427   0.691   8.505   4.191
 4860SOL    HW219428   0.789   8.447   4.074
 4861SOL     OW19429   0.410   8.261   4.975
 4861SOL    HW119430   0.496   8.273   5.025
 4861SOL    HW219431   0.368   8.174   5.002
 4862SOL     OW19432   1.274   7.834   4.986
 4862SOL    HW119433   1.295   7.908   5.050
 4862SOL    HW219434   1.185   7.851   4.943
 4863SOL     OW19435   0.064   9.012   5.055
 4863SOL    HW119436   0.018   9.094   5.021
 4863SOL    HW219437   0.162   9.031   5.064
 4864SOL     OW19438   0.566   7.985   4.589
 4864SOL    HW119439   0.578   8.051   4.515
 4864SOL    HW219440   0.612   8.019   4.672
 4865SOL     OW19441   1.252   8.796   4.112
 4865SOL    HW119442   1.302   8.873   4.152
 4865SOL    HW219443   1.157   8.798   4.144
 4866SOL     OW19444   1.582   8.087   4.196
 4866SOL    HW119445   1.551   8.148   4.269
 4866SOL    HW219446   1.632   8.139   4.127
 4867SOL     OW19447   0.402   8.199   5.322
 4867SOL    HW119448   0.470   8.254   5.275
 4867SOL    HW219449   0.442   8.111   5.349
 4868SOL     OW19450   1.587   8.227   5.394
 4868SOL    HW119451   1.495   8.265   5.389
 4868SOL    HW219452   1.647   8.274   5.329
 4869SOL     OW19453   0.573   8.318   4.753
 4869SOL    HW119454   0.617   8.407   4.744
 4869SOL    HW219455   0.510   8.318   4.830
 4870SOL     OW19456   1.360   8.310   4.769
 4870SOL    HW119457   1.285   8.310   4.703
 4870SOL    HW219458   1.397   8.218   4.778
 4871SOL     OW19459   1.209   7.973   3.999
 4871SOL    HW119460   1.222   7.889   4.053
 4871SOL    HW219461   1.180   8.047   4.059
 4872SOL     OW19462   0.307   7.661   4.955
 4872SOL    HW119463   0.284   7.698   5.045
 4872SOL    HW219464   0.277   7.566   4.949
 4873SOL     OW19465   0.037   8.758   5.006
 4873SOL    HW119466   0.090   8.709   5.074
 4873SOL    HW219467   0.059   8.856   5.011
 4874SOL     OW19468   0.732   8.082   4.788
 4874SOL    HW119469   0.791   8.056   4.712
 4874SOL    HW219470   0.704   8.178   4.777
 4875SOL     OW19471   1.728   8.383   5.578
 4875SOL    HW119472   1.682   8.376   5.489
 4875SOL    HW219473   1.666   8.427   5.644
 4876SOL     OW19474   0.307   7.511   4.342
 4876SOL    HW119475   0.296   7.605   4.375
 4876SOL    HW219476   0.302   7.448   4.419
 4877SOL     OW19477   1.622   7.815   4.098
 4877SOL    HW119478   1.624   7.739   4.162
 4877SOL    HW219479   1.574   7.892   4.138
 4878SOL     OW19480   1.023   8.214   4.690
 4878SOL    HW119481   1.038   8.235   4.786
 4878SOL    HW219482   0.993   8.119   4.681
 4879SOL     OW19483   0.980   9.021   5.424
 4879SOL    HW119484   0.960   9.065   5.336
 4879SOL    HW219485   1.019   8.930   5.408
 4880SOL     OW19486   1.859   8.966   5.329
 4880SOL    HW119487   1.873   8.993   5.234
 4880SOL    HW219488   1.942   8.988   5.382
 4881SOL     OW19489   0.350   8.346   5.528
 4881SOL    HW119490   0.426   8.390   5.576
 4881SOL    HW219491   0.385   8.299   5.446
 4882SOL     OW19492   1.540   7.722   3.849
 4882SOL    HW119493   1.479   7.647   3.872
 4882SOL    HW219494   1.562   7.774   3.932
 4883SOL     OW19495   1.303   8.286   3.766
 4883SOL    HW119496   1.337   8.193   3.781
 4883SOL    HW219497   1.321   8.313   3.671
 4884SOL     OW19498   1.068   8.781   4.573
 4884SOL    HW119499   1.075   8.697   4.518
 4884SOL    HW219500   1.130   8.850   4.537
 4885SOL     OW19501   0.319   8.258   4.673
 4885SOL    HW119502   0.412   8.294   4.678
 4885SOL    HW219503   0.313   8.173   4.725
 4886SOL     OW19504   0.339   7.957   4.730
 4886SOL    HW119505   0.287   7.874   4.713
 4886SOL    HW219506   0.416   7.962   4.666
 4887SOL     OW19507   1.138   7.828   5.402
 4887SOL    HW119508   1.093   7.891   5.466
 4887SOL    HW219509   1.231   7.859   5.385
 4888SOL     OW19510   0.504   9.016   4.634
 4888SOL    HW119511   0.570   9.090   4.643
 4888SOL    HW219512   0.548   8.937   4.592
 4889SOL     OW19513   1.002   8.244   4.962
 4889SOL    HW119514   1.043   8.212   5.048
 4889SOL    HW219515   0.906   8.217   4.959
 4890SOL     OW19516   0.040   7.992   4.838
 4890SOL    HW119517   0.125   7.959   4.797
 4890SOL    HW219518   0.053   8.007   4.936
 4891SOL     OW19519   0.189   7.968   5.446
 4891SOL    HW119520   0.248   7.928   5.376
 4891SOL    HW219521   0.131   8.039   5.405
 4892SOL     OW19522   1.369   8.398   5.384
 4892SOL    HW119523   1.408   8.487   5.404
 4892SOL    HW219524   1.379   8.378   5.287
 4893SOL     OW19525   1.657   8.052   4.930
 4893SOL    HW119526   1.619   7.983   4.992
 4893SOL    HW219527   1.739   8.016   4.886
 4894SOL     OW19528   0.252   9.012   5.468
 4894SOL    HW119529   0.222   9.069   5.544
 4894SOL    HW219530   0.245   8.915   5.494
 4895SOL     OW19531   0.671   7.912   4.993
 4895SOL    HW119532   0.637   7.823   4.963
 4895SOL    HW219533   0.697   7.966   4.913
 4896SOL     OW19534   0.930   9.126   5.189
 4896SOL    HW119535   0.906   9.108   5.094
 4896SOL    HW219536   0.960   9.220   5.199
 4897SOL     OW19537   0.159   8.585   5.190
 4897SOL    HW119538   0.181   8.524   5.266
 4897SOL    HW219539   0.169   8.536   5.104
 4898SOL     OW19540   1.347   8.507   4.958
 4898SOL    HW119541   1.371   8.444   4.884
 4898SOL    HW219542   1.257   8.547   4.940
 4899SOL     OW19543   1.302   8.303   4.033
 4899SOL    HW119544   1.216   8.272   4.075
 4899SOL    HW219545   1.298   8.289   3.934
 4900SOL     OW19546   0.083   8.706   4.746
 4900SOL    HW119547   0.078   8.705   4.846
 4900SOL    HW219548   0.000   8.665   4.708
 4901SOL     OW19549   0.688   9.110   5.440
 4901SOL    HW119550   0.632   9.191   5.449
 4901SOL    HW219551   0.740   9.114   5.354
 4902SOL     OW19552   1.726   7.583   4.247
 4902SOL    HW119553   1.799   7.566   4.180
 4902SOL    HW219554   1.695   7.496   4.285
 4903SOL     OW19555   1.388   9.021   4.201
 4903SOL    HW119556   1.455   9.033   4.127
 4903SOL    HW219557   1.348   9.110   4.224
 4904SOL     OW19558   0.130   9.242   5.575
 4904SOL    HW119559   0.089   9.168   5.628
 4904SOL    HW219560   0.194   9.293   5.633
 4905SOL     OW19561   1.280   8.375   4.396
 4905SOL    HW119562   1.340   8.294   4.398
 4905SOL    HW219563   1.320   8.444   4.336
 4906SOL     OW19564   0.830   8.721   5.146
 4906SOL    HW119565   0.825   8.754   5.241
 4906SOL    HW219566   0.744   8.740   5.100
 4907SOL     OW19567   0.672   9.064   3.878
 4907SOL    HW119568   0.681   9.074   3.779
 4907SOL    HW219569   0.632   8.975   3.899
 4908SOL     OW19570   1.650   9.168   5.118
 4908SOL    HW119571   1.703   9.178   5.034
 4908SOL    HW219572   1.623   9.258   5.152
 4909SOL     OW19573   1.841   7.623   4.687
 4909SOL    HW119574   1.880   7.538   4.651
 4909SOL    HW219575   1.743   7.625   4.668
 4910SOL     OW19576   0.263   7.774   4.444
 4910SOL    HW119577   0.184   7.825   4.410
 4910SOL    HW219578   0.254   7.759   4.542
 4911SOL     OW19579   1.194   9.060   3.755
 4911SOL    HW119580   1.200   8.967   3.792
 4911SOL    HW219581   1.135   9.060   3.675
 4912SOL     OW19582   0.822   8.450   5.096
 4912SOL    HW119583   0.862   8.449   5.004
 4912SOL    HW219584   0.832   8.542   5.136
 4913SOL     OW19585   1.504   9.055   3.768
 4913SOL    HW119586   1.412   9.092   3.775
 4913SOL    HW219587   1.542   9.075   3.678
 4914SOL     OW19588   1.039   8.546   4.420
 4914SOL    HW119589   0.969   8.499   4.474
 4914SOL    HW219590   1.098   8.478   4.377
 4915SOL     OW19591   1.014   7.684   4.695
 4915SOL    HW119592   1.006   7.648   4.602
 4915SOL    HW219593   1.012   7.608   4.760
 4916SOL     OW19594   0.590   8.935   4.215
 4916SOL    HW119595   0.632   8.877   4.145
 4916SOL    HW219596   0.546   9.014   4.171
 4917SOL     OW19597   1.709   7.833   5.105
 4917SOL    HW119598   1.782   7.902   5.109
 4917SOL    HW219599   1.737   7.758   5.046
 4918SOL     OW19600   0.105   8.461   5.450
 4918SOL    HW119601   0.028   8.428   5.504
 4918SOL    HW219602   0.190   8.431   5.492
 4919SOL     OW19603   0.672   7.651   5.213
 4919SOL    HW119604   0.762   7.635   5.173
 4919SOL    HW219605   0.680   7.656   5.312
 4920SOL     OW19606   0.075   7.793   3.757
 4920SOL    HW119607  -0.017   7.765   3.728
 4920SOL    HW219608   0.106   7.870   3.701
 4921SOL     OW19609   1.440   8.304   5.122
 4921SOL    HW119610   1.383   8.356   5.059
 4921SOL    HW219611   1.536   8.316   5.098
 4922SOL     OW19612   0.072   7.614   4.042
 4922SOL    HW119613   0.055   7.697   3.988
 4922SOL    HW219614   0.162   7.577   4.020
 4923SOL     OW19615   1.183   8.783   3.843
 4923SOL    HW119616   1.084   8.772   3.845
 4923SOL    HW219617   1.217   8.798   3.936
 4924SOL     OW19618   0.716   8.013   5.432
 4924SOL    HW119619   0.735   8.078   5.506
 4924SOL    HW219620   0.776   7.933   5.441
 4925SOL     OW19621   1.450   8.668   5.357
 4925SOL    HW119622   1.441   8.658   5.456
 4925SOL    HW219623   1.546   8.661   5.331
 4926SOL     OW19624   1.674   8.331   4.978
 4926SOL    HW119625   1.647   8.242   4.941
 4926SOL    HW219626   1.675   8.399   4.905
 4927SOL     OW19627   1.225   7.773   4.173
 4927SOL    HW119628   1.290   7.699   4.162
 4927SOL    HW219629   1.245   7.823   4.257
 4928SOL     OW19630   0.594   8.193   4.376
 4928SOL    HW119631   0.644   8.278   4.357
 4928SOL    HW219632   0.506   8.195   4.328
 4929SOL     OW19633   1.777   7.790   5.366
 4929SOL    HW119634   1.760   7.821   5.272
 4929SOL    HW219635   1.693   7.753   5.404
 4930SOL     OW19636   1.730   8.382   5.241
 4930SOL    HW119637   1.768   8.473   5.256
 4930SOL    HW219638   1.722   8.365   5.142
 4931SOL     OW19639   0.859   8.822   3.740
 4931SOL    HW119640   0.813   8.837   3.828
 4931SOL    HW219641   0.903   8.907   3.710
 4932SOL     OW19642   0.859   8.404   4.585
 4932SOL    HW119643   0.913   8.335   4.633
 4932SOL    HW219644   0.827   8.473   4.651
 4933SOL     OW19645   1.083   8.432   3.811
 4933SOL    HW119646   1.060   8.485   3.729
 4933SOL    HW219647   1.164   8.376   3.792
 4934SOL     OW19648   1.861   9.017   4.575
 4934SOL    HW119649   1.790   9.005   4.505
 4934SOL    HW219650   1.862   8.938   4.635
 4935SOL     OW19651   0.221   8.762   5.568
 4935SOL    HW119652   0.156   8.689   5.547
 4935SOL    HW219653   0.225   8.776   5.666
 4936SOL     OW19654   0.079   8.688   4.377
 4936SOL    HW119655   0.078   8.641   4.465
 4936SOL    HW219656   0.161   8.660   4.326
 4937SOL     OW19657   0.672   8.839   5.348
 4937SOL    HW119658   0.594   8.789   5.386
 4937SOL    HW219659   0.669   8.934   5.379
 4938SOL     OW19660   1.824   7.640   4.951
 4938SOL    HW119661   1.820   7.550   4.995
 4938SOL    HW219662   1.827   7.629   4.852
 4939SOL     OW19663   0.428   7.872   4.244
 4939SOL    HW119664   0.458   7.800   4.182
 4939SOL    HW219665   0.389   7.832   4.327
 4940SOL     OW19666   0.317   7.995   5.004
 4940SOL    HW119667   0.355   7.936   5.076
 4940SOL    HW219668   0.357   7.969   4.916
 4941SOL     OW19669   0.812   9.034   4.411
 4941SOL    HW119670   0.844   9.044   4.317
 4941SOL    HW219671   0.733   8.972   4.413
 4942SOL     OW19672   1.424   7.662   4.836
 4942SOL    HW119673   1.476   7.597   4.891
 4942SOL    HW219674   1.375   7.725   4.897
 4943SOL     OW19675   1.001   7.482   4.878
 4943SOL    HW119676   0.938   7.410   4.847
 4943SOL    HW219677   1.094   7.446   4.878
 4944SOL     OW19678   0.770   8.778   4.025
 4944SOL    HW119679   0.724   8.691   4.042
 4944SOL    HW219680   0.861   8.775   4.066
 4945SOL     OW19681   0.618   9.015   5.008
 4945SOL    HW119682   0.613   9.097   5.065
 4945SOL    HW219683   0.707   9.012   4.963
 4946SOL     OW19684   1.352   7.500   3.892
 4946SOL    HW119685   1.387   7.459   3.808
 4946SOL    HW219686   1.262   7.462   3.912
 4947SOL     OW19687   1.300   7.901   4.415
 4947SOL    HW119688   1.241   7.981   4.419
 4947SOL    HW219689   1.315   7.866   4.508
 4948SOL     OW19690   1.593   7.669   4.606
 4948SOL    HW119691   1.509   7.668   4.660
 4948SOL    HW219692   1.595   7.752   4.550
 4949SOL     OW19693   0.875   9.094   4.061
 4949SOL    HW119694   0.798   9.059   4.007
 4949SOL    HW219695   0.843   9.165   4.123
 4950SOL     OW19696   0.230   8.076   5.699
 4950SOL    HW119697   0.137   8.074   5.736
 4950SOL    HW219698   0.231   8.037   5.607
 4951SOL     OW19699   0.225   7.723   6.582
 4951SOL    HW119700   0.260   7.706   6.674
 4951SOL    HW219701   0.137   7.678   6.570
 4952SOL     OW19702   0.019   7.816   6.233
 4952SOL    HW119703  -0.063   7.859   6.272
 4952SOL    HW219704  -0.009   7.743   6.170
 4953SOL     OW19705   0.569   8.723   6.751
 4953SOL    HW119706   0.476   8.716   6.714
 4953SOL    HW219707   0.580   8.812   6.795
 4954SOL     OW19708   1.555   8.959   6.289
 4954SOL    HW119709   1.498   8.943   6.370
 4954SOL    HW219710   1.496   8.969   6.209
 4955SOL     OW19711   1.135   8.151   6.303
 4955SOL    HW119712   1.192   8.229   6.278
 4955SOL    HW219713   1.075   8.177   6.379
 4956SOL     OW19714   0.768   8.592   6.609
 4956SOL    HW119715   0.690   8.609   6.669
 4956SOL    HW219716   0.802   8.679   6.573
 4957SOL     OW19717   0.685   8.460   6.251
 4957SOL    HW119718   0.754   8.444   6.321
 4957SOL    HW219719   0.612   8.517   6.289
 4958SOL     OW19720   0.335   8.883   6.647
 4958SOL    HW119721   0.257   8.852   6.594
 4958SOL    HW219722   0.393   8.941   6.590
 4959SOL     OW19723   1.460   8.953   6.925
 4959SOL    HW119724   1.484   9.047   6.951
 4959SOL    HW219725   1.444   8.899   7.007
 4960SOL     OW19726   0.438   7.840   7.085
 4960SOL    HW119727   0.520   7.784   7.094
 4960SOL    HW219728   0.357   7.782   7.089
 4961SOL     OW19729   1.603   7.895   6.323
 4961SOL    HW119730   1.529   7.941   6.273
 4961SOL    HW219731   1.654   7.963   6.376
 4962SOL     OW19732   0.231   9.161   6.069
 4962SOL    HW119733   0.265   9.238   6.123
 4962SOL    HW219734   0.275   9.161   5.979
 4963SOL     OW19735   1.127   8.789   7.276
 4963SOL    HW119736   1.174   8.789   7.364
 4963SOL    HW219737   1.079   8.702   7.265
 4964SOL     OW19738   0.230   8.882   6.124
 4964SOL    HW119739   0.204   8.978   6.124
 4964SOL    HW219740   0.159   8.828   6.169
 4965SOL     OW19741   0.240   8.539   6.472
 4965SOL    HW119742   0.254   8.455   6.524
 4965SOL    HW219743   0.185   8.603   6.527
 4966SOL     OW19744   0.620   9.234   7.025
 4966SOL    HW119745   0.528   9.217   7.060
 4966SOL    HW219746   0.648   9.326   7.051
 4967SOL     OW19747   0.606   8.412   5.709
 4967SOL    HW119748   0.613   8.496   5.655
 4967SOL    HW219749   0.652   8.425   5.797
 4968SOL     OW19750   1.594   7.562   7.066
 4968SOL    HW119751   1.576   7.629   6.994
 4968SOL    HW219752   1.591   7.608   7.155
 4969SOL     OW19753   0.122   8.091   6.149
 4969SOL    HW119754   0.077   8.003   6.166
 4969SOL    HW219755   0.121   8.145   6.233
 4970SOL     OW19756   1.842   9.215   5.945
 4970SOL    HW119757   1.896   9.186   6.025
 4970SOL    HW219758   1.872   9.305   5.916
 4971SOL     OW19759   0.027   9.044   5.703
 4971SOL    HW119760   0.008   8.948   5.724
 4971SOL    HW219761  -0.006   9.102   5.778
 4972SOL     OW19762   1.689   8.370   6.198
 4972SOL    HW119763   1.784   8.341   6.206
 4972SOL    HW219764   1.681   8.435   6.123
 4973SOL     OW19765   1.641   8.556   6.018
 4973SOL    HW119766   1.727   8.558   5.966
 4973SOL    HW219767   1.655   8.603   6.106
 4974SOL     OW19768   0.113   8.185   7.183
 4974SOL    HW119769   0.201   8.172   7.228
 4974SOL    HW219770   0.100   8.282   7.161
 4975SOL     OW19771   0.613   8.813   6.312
 4975SOL    HW119772   0.564   8.726   6.321
 4975SOL    HW219773   0.590   8.856   6.225
 4976SOL     OW19774   1.293   8.676   7.009
 4976SOL    HW119775   1.330   8.603   6.951
 4976SOL    HW219776   1.345   8.681   7.094
 4977SOL     OW19777   0.809   7.452   6.088
 4977SOL    HW119778   0.849   7.543   6.079
 4977SOL    HW219779   0.709   7.460   6.094
 4978SOL     OW19780   0.197   8.424   6.850
 4978SOL    HW119781   0.286   8.379   6.836
 4978SOL    HW219782   0.124   8.359   6.831
 4979SOL     OW19783   1.525   8.447   5.776
 4979SOL    HW119784   1.462   8.371   5.789
 4979SOL    HW219785   1.573   8.465   5.862
 4980SOL     OW19786   1.187   9.240   7.202
 4980SOL    HW119787   1.211   9.300   7.126
 4980SOL    HW219788   1.194   9.145   7.172
 4981SOL     OW19789   0.317   7.699   7.387
 4981SOL    HW119790   0.388   7.770   7.393
 4981SOL    HW219791   0.229   7.738   7.415
 4982SOL     OW19792   1.466   8.865   6.539
 4982SOL    HW119793   1.407   8.871   6.619
 4982SOL    HW219794   1.451   8.777   6.493
 4983SOL     OW19795   1.667   9.162   6.158
 4983SOL    HW119796   1.626   9.139   6.070
 4983SOL    HW219797   1.649   9.088   6.223
 4984SOL     OW19798   0.598   8.177   5.856
 4984SOL    HW119799   0.622   8.246   5.788
 4984SOL    HW219800   0.520   8.210   5.910
 4985SOL     OW19801   1.281   7.793   6.530
 4985SOL    HW119802   1.195   7.743   6.517
 4985SOL    HW219803   1.343   7.739   6.586
 4986SOL     OW19804   1.576   9.110   5.893
 4986SOL    HW119805   1.665   9.156   5.896
 4986SOL    HW219806   1.555   9.086   5.798
 4987SOL     OW19807   0.807   8.053   7.051
 4987SOL    HW119808   0.760   8.050   7.140
 4987SOL    HW219809   0.756   7.998   6.985
 4988SOL     OW19810   1.394   7.917   7.260
 4988SOL    HW119811   1.374   7.960   7.348
 4988SOL    HW219812   1.472   7.855   7.269
 4989SOL     OW19813   0.991   7.858   6.828
 4989SOL    HW119814   0.914   7.892   6.882
 4989SOL    HW219815   0.957   7.807   6.749
 4990SOL     OW19816   1.041   8.149   6.015
 4990SOL    HW119817   1.067   8.145   6.111
 4990SOL    HW219818   0.956   8.098   6.001
 4991SOL     OW19819   0.076   8.259   6.375
 4991SOL    HW119820   0.175   8.247   6.384
 4991SOL    HW219821   0.052   8.354   6.396
 4992SOL     OW19822   0.865   7.796   5.781
 4992SOL    HW119823   0.924   7.859   5.732
 4992SOL    HW219824   0.884   7.702   5.752
 4993SOL     OW19825   1.719   8.033   7.417
 4993SOL    HW119826   1.693   8.122   7.381
 4993SOL    HW219827   1.717   7.965   7.344
 4994SOL     OW19828   1.362   8.592   6.131
 4994SOL    HW119829   1.445   8.563   6.083
 4994SOL    HW219830   1.313   8.659   6.075
 4995SOL     OW19831   0.550   7.644   6.471
 4995SOL    HW119832   0.545   7.639   6.571
 4995SOL    HW219833   0.552   7.740   6.442
 4996SOL     OW19834   1.008   8.904   6.063
 4996SOL    HW119835   0.962   8.976   6.011
 4996SOL    HW219836   1.004   8.924   6.161
 4997SOL     OW19837   0.351   9.249   6.439
 4997SOL    HW119838   0.401   9.163   6.445
 4997SOL    HW219839   0.416   9.326   6.436
 4998SOL     OW19840   1.795   8.514   6.459
 4998SOL    HW119841   1.733   8.499   6.383
 4998SOL    HW219842   1.743   8.525   6.544
 4999SOL     OW19843   1.227   8.998   7.092
 4999SOL    HW119844   1.233   8.921   7.156
 4999SOL    HW219845   1.175   8.972   7.012
 5000SOL     OW19846   0.321   8.391   5.828
 5000SOL    HW119847   0.403   8.430   5.786
 5000SOL    HW219848   0.294   8.309   5.779
 5001SOL     OW19849   1.458   8.183   6.314
 5001SOL    HW119850   1.453   8.118   6.389
 5001SOL    HW219851   1.538   8.242   6.327
 5002SOL     OW19852   0.461   8.714   7.313
 5002SOL    HW119853   0.411   8.715   7.227
 5002SOL    HW219854   0.398   8.696   7.389
 5003SOL     OW19855   1.111   9.224   5.823
 5003SOL    HW119856   1.051   9.162   5.873
 5003SOL    HW219857   1.142   9.180   5.738
 5004SOL     OW19858   1.632   8.825   5.667
 5004SOL    HW119859   1.600   8.919   5.657
 5004SOL    HW219860   1.556   8.762   5.655
 5005SOL     OW19861   0.464   9.191   5.909
 5005SOL    HW119862   0.497   9.230   5.995
 5005SOL    HW219863   0.540   9.184   5.844
 5006SOL     OW19864   1.400   7.555   6.012
 5006SOL    HW119865   1.376   7.518   5.922
 5006SOL    HW219866   1.499   7.571   6.016
 5007SOL     OW19867   0.249   9.233   6.827
 5007SOL    HW119868   0.306   9.168   6.877
 5007SOL    HW219869   0.233   9.200   6.734
 5008SOL     OW19870   0.940   9.146   6.490
 5008SOL    HW119871   1.020   9.089   6.511
 5008SOL    HW219872   0.891   9.106   6.413
 5009SOL     OW19873   0.382   8.148   6.066
 5009SOL    HW119874   0.427   8.058   6.063
 5009SOL    HW219875   0.288   8.137   6.099
 5010SOL     OW19876   1.547   7.670   7.315
 5010SOL    HW119877   1.542   7.707   7.407
 5010SOL    HW219878   1.475   7.601   7.303
 5011SOL     OW19879   0.614   7.570   5.703
 5011SOL    HW119880   0.712   7.548   5.710
 5011SOL    HW219881   0.583   7.553   5.610
 5012SOL     OW19882   0.781   7.712   7.335
 5012SOL    HW119883   0.848   7.651   7.378
 5012SOL    HW219884   0.708   7.731   7.400
 5013SOL     OW19885   0.888   8.962   6.781
 5013SOL    HW119886   0.865   8.937   6.687
 5013SOL    HW219887   0.949   8.893   6.820
 5014SOL     OW19888   1.351   8.038   7.019
 5014SOL    HW119889   1.379   7.995   7.104
 5014SOL    HW219890   1.376   8.134   7.020
 5015SOL     OW19891   0.803   8.850   6.510
 5015SOL    HW119892   0.893   8.864   6.468
 5015SOL    HW219893   0.732   8.852   6.439
 5016SOL     OW19894   0.922   7.951   6.485
 5016SOL    HW119895   0.897   7.942   6.389
 5016SOL    HW219896   0.970   7.869   6.516
 5017SOL     OW19897   0.539   7.512   6.098
 5017SOL    HW119898   0.458   7.513   6.156
 5017SOL    HW219899   0.542   7.595   6.043
 5018SOL     OW19900   1.434   8.636   5.627
 5018SOL    HW119901   1.466   8.560   5.684
 5018SOL    HW219902   1.342   8.663   5.657
 5019SOL     OW19903   0.297   7.483   5.757
 5019SOL    HW119904   0.346   7.567   5.736
 5019SOL    HW219905   0.359   7.418   5.802
 5020SOL     OW19906   0.935   7.684   6.066
 5020SOL    HW119907   0.887   7.725   5.988
 5020SOL    HW219908   1.034   7.682   6.047
 5021SOL     OW19909   1.076   8.131   7.050
 5021SOL    HW119910   0.996   8.070   7.053
 5021SOL    HW219911   1.157   8.078   7.026
 5022SOL     OW19912   1.227   9.018   6.379
 5022SOL    HW119913   1.248   9.092   6.314
 5022SOL    HW219914   1.295   9.018   6.452
 5023SOL     OW19915   0.459   8.600   6.327
 5023SOL    HW119916   0.388   8.573   6.392
 5023SOL    HW219917   0.433   8.572   6.234
 5024SOL     OW19918   1.271   9.245   6.177
 5024SOL    HW119919   1.315   9.309   6.113
 5024SOL    HW219920   1.221   9.297   6.247
 5025SOL     OW19921   1.032   7.997   5.602
 5025SOL    HW119922   0.991   8.079   5.563
 5025SOL    HW219923   1.096   8.023   5.675
 5026SOL     OW19924   0.561   7.670   6.733
 5026SOL    HW119925   0.599   7.586   6.770
 5026SOL    HW219926   0.473   7.689   6.777
 5027SOL     OW19927   0.866   7.902   6.228
 5027SOL    HW119928   0.834   7.974   6.166
 5027SOL    HW219929   0.890   7.821   6.175
 5028SOL     OW19930   1.017   7.487   6.339
 5028SOL    HW119931   0.945   7.492   6.270
 5028SOL    HW219932   0.993   7.418   6.408
 5029SOL     OW19933   1.429   8.621   6.453
 5029SOL    HW119934   1.374   8.537   6.446
 5029SOL    HW219935   1.455   8.650   6.361
 5030SOL     OW19936   1.466   8.038   6.578
 5030SOL    HW119937   1.436   7.943   6.585
 5030SOL    HW219938   1.539   8.054   6.644
 5031SOL     OW19939   1.857   8.281   5.963
 5031SOL    HW119940   1.899   8.217   6.027
 5031SOL    HW219941   1.819   8.230   5.885
 5032SOL     OW19942   0.488   8.833   5.760
 5032SOL    HW119943   0.401   8.818   5.807
 5032SOL    HW219944   0.471   8.859   5.665
 5033SOL     OW19945   1.664   8.728   6.243
 5033SOL    HW119946   1.763   8.736   6.257
 5033SOL    HW219947   1.619   8.812   6.274
 5034SOL     OW19948   1.390   8.023   5.664
 5034SOL    HW119949   1.336   8.002   5.745
 5034SOL    HW219950   1.481   7.982   5.673
 5035SOL     OW19951   0.527   7.704   5.914
 5035SOL    HW119952   0.554   7.645   5.839
 5035SOL    HW219953   0.527   7.799   5.883
 5036SOL     OW19954   1.754   8.671   7.174
 5036SOL    HW119955   1.845   8.632   7.161
 5036SOL    HW219956   1.762   8.767   7.198
 5037SOL     OW19957   1.064   8.795   6.926
 5037SOL    HW119958   0.984   8.772   6.981
 5037SOL    HW219959   1.147   8.769   6.975
 5038SOL     OW19960   1.592   9.077   7.211
 5038SOL    HW119961   1.619   9.111   7.121
 5038SOL    HW219962   1.671   9.039   7.257
 5039SOL     OW19963   1.111   8.643   6.686
 5039SOL    HW119964   1.071   8.687   6.767
 5039SOL    HW219965   1.070   8.680   6.603
 5040SOL     OW19966   1.638   8.547   6.665
 5040SOL    HW119967   1.643   8.628   6.724
 5040SOL    HW219968   1.552   8.549   6.614
 5041SOL     OW19969   0.915   7.537   6.988
 5041SOL    HW119970   0.940   7.517   6.893
 5041SOL    HW219971   0.987   7.593   7.030
 5042SOL     OW19972   0.705   8.498   5.954
 5042SOL    HW119973   0.691   8.505   6.053
 5042SOL    HW219974   0.789   8.447   5.936
 5043SOL     OW19975   0.410   8.261   6.837
 5043SOL    HW119976   0.496   8.273   6.887
 5043SOL    HW219977   0.368   8.174   6.864
 5044SOL     OW19978   1.274   7.834   6.848
 5044SOL    HW119979   1.295   7.908   6.912
 5044SOL    HW219980   1.185   7.851   6.805
 5045SOL     OW19981   0.367   8.548   6.087
 5045SOL    HW119982   0.360   8.631   6.031
 5045SOL    HW219983   0.371   8.468   6.027
 5046SOL     OW19984   0.566   7.985   6.451
 5046SOL    HW119985   0.578   8.051   6.377
 5046SOL    HW219986   0.612   8.019   6.534
 5047SOL     OW19987   1.252   8.796   5.974
 5047SOL    HW119988   1.302   8.873   6.014
 5047SOL    HW219989   1.157   8.798   6.006
 5048SOL     OW19990   1.272   8.893   6.728
 5048SOL    HW119991   1.319   8.906   6.815
 5048SOL    HW219992   1.206   8.819   6.737
 5049SOL     OW19993   1.582   8.087   6.058
 5049SOL    HW119994   1.551   8.148   6.131
 5049SOL    HW219995   1.632   8.139   5.989
 5050SOL     OW19996   0.354   8.958   6.915
 5050SOL    HW119997   0.333   8.914   6.828
 5050SOL    HW219998   0.451   8.984   6.918
 5051SOL     OW19999   0.402   8.199   7.184
 5051SOL    HW120000   0.470   8.254   7.137
 5051SOL    HW220001   0.442   8.111   7.211
 5052SOL     OW20002   1.587   8.227   7.256
 5052SOL    HW120003   1.495   8.265   7.251
 5052SOL    HW220004   1.647   8.274   7.191
 5053SOL     OW20005   1.013   7.553   7.356
 5053SOL    HW120006   1.019   7.638   7.304
 5053SOL    HW220007   1.045   7.477   7.299
 5054SOL     OW20008   0.504   7.498   7.326
 5054SOL    HW120009   0.462   7.441   7.256
 5054SOL    HW220010   0.438   7.567   7.358
 5055SOL     OW20011   0.573   8.318   6.615
 5055SOL    HW120012   0.617   8.407   6.606
 5055SOL    HW220013   0.510   8.318   6.692
 5056SOL     OW20014   1.360   8.310   6.631
 5056SOL    HW120015   1.285   8.310   6.565
 5056SOL    HW220016   1.397   8.218   6.640
 5057SOL     OW20017   1.209   7.973   5.861
 5057SOL    HW120018   1.222   7.889   5.915
 5057SOL    HW220019   1.180   8.047   5.921
 5058SOL     OW20020   0.307   7.661   6.817
 5058SOL    HW120021   0.284   7.698   6.907
 5058SOL    HW220022   0.277   7.566   6.811
 5059SOL     OW20023   0.732   8.082   6.650
 5059SOL    HW120024   0.791   8.056   6.574
 5059SOL    HW220025   0.704   8.178   6.639
 5060SOL     OW20026   1.728   8.383   7.440
 5060SOL    HW120027   1.682   8.376   7.351
 5060SOL    HW220028   1.666   8.427   7.506
 5061SOL     OW20029   0.307   7.511   6.204
 5061SOL    HW120030   0.296   7.605   6.237
 5061SOL    HW220031   0.302   7.448   6.281
 5062SOL     OW20032   1.622   7.815   5.960
 5062SOL    HW120033   1.624   7.739   6.024
 5062SOL    HW220034   1.574   7.892   6.000
 5063SOL     OW20035   1.023   8.214   6.552
 5063SOL    HW120036   1.038   8.235   6.648
 5063SOL    HW220037   0.993   8.119   6.543
 5064SOL     OW20038   0.980   9.021   7.286
 5064SOL    HW120039   0.960   9.065   7.198
 5064SOL    HW220040   1.019   8.930   7.270
 5065SOL     OW20041   1.859   8.966   7.191
 5065SOL    HW120042   1.873   8.993   7.096
 5065SOL    HW220043   1.942   8.988   7.244
 5066SOL     OW20044   1.540   7.722   5.711
 5066SOL    HW120045   1.479   7.647   5.734
 5066SOL    HW220046   1.562   7.774   5.794
 5067SOL     OW20047   1.303   8.286   5.628
 5067SOL    HW120048   1.337   8.193   5.643
 5067SOL    HW220049   1.321   8.313   5.533
 5068SOL     OW20050   1.068   8.781   6.435
 5068SOL    HW120051   1.075   8.697   6.380
 5068SOL    HW220052   1.130   8.850   6.399
 5069SOL     OW20053   0.319   8.258   6.535
 5069SOL    HW120054   0.412   8.294   6.540
 5069SOL    HW220055   0.313   8.173   6.587
 5070SOL     OW20056   0.339   7.957   6.592
 5070SOL    HW120057   0.287   7.874   6.575
 5070SOL    HW220058   0.416   7.962   6.528
 5071SOL     OW20059   1.138   7.828   7.264
 5071SOL    HW120060   1.093   7.891   7.328
 5071SOL    HW220061   1.231   7.859   7.247
 5072SOL     OW20062   1.160   7.655   7.063
 5072SOL    HW120063   1.160   7.719   7.140
 5072SOL    HW220064   1.188   7.703   6.980
 5073SOL     OW20065   0.008   8.774   5.786
 5073SOL    HW120066  -0.085   8.795   5.755
 5073SOL    HW220067   0.018   8.675   5.799
 5074SOL     OW20068   0.088   9.249   6.513
 5074SOL    HW120069   0.046   9.163   6.486
 5074SOL    HW220070   0.182   9.252   6.479
 5075SOL     OW20071   0.504   9.016   6.496
 5075SOL    HW120072   0.570   9.090   6.505
 5075SOL    HW220073   0.548   8.937   6.454
 5076SOL     OW20074   1.002   8.244   6.824
 5076SOL    HW120075   1.043   8.212   6.910
 5076SOL    HW220076   0.906   8.217   6.821
 5077SOL     OW20077   0.040   7.992   6.700
 5077SOL    HW120078   0.125   7.959   6.659
 5077SOL    HW220079   0.053   8.007   6.798
 5078SOL     OW20080   0.189   7.968   7.308
 5078SOL    HW120081   0.248   7.928   7.238
 5078SOL    HW220082   0.131   8.039   7.267
 5079SOL     OW20083   1.369   8.398   7.246
 5079SOL    HW120084   1.408   8.487   7.266
 5079SOL    HW220085   1.379   8.378   7.149
 5080SOL     OW20086   0.815   8.020   5.911
 5080SOL    HW120087   0.822   7.931   5.865
 5080SOL    HW220088   0.721   8.054   5.903
 5081SOL     OW20089   1.657   8.052   6.792
 5081SOL    HW120090   1.619   7.983   6.854
 5081SOL    HW220091   1.739   8.016   6.748
 5082SOL     OW20092   0.252   9.012   7.330
 5082SOL    HW120093   0.222   9.069   7.406
 5082SOL    HW220094   0.245   8.915   7.356
 5083SOL     OW20095   0.671   7.912   6.855
 5083SOL    HW120096   0.637   7.823   6.825
 5083SOL    HW220097   0.697   7.966   6.775
 5084SOL     OW20098   0.930   9.126   7.051
 5084SOL    HW120099   0.906   9.108   6.956
 5084SOL    HW220100   0.960   9.220   7.061
 5085SOL     OW20101   0.473   7.948   5.777
 5085SOL    HW120102   0.534   8.028   5.781
 5085SOL    HW220103   0.378   7.979   5.784
 5086SOL     OW20104   0.159   8.585   7.052
 5086SOL    HW120105   0.181   8.524   7.128
 5086SOL    HW220106   0.169   8.536   6.966
 5087SOL     OW20107   1.347   8.507   6.820
 5087SOL    HW120108   1.371   8.444   6.746
 5087SOL    HW220109   1.257   8.547   6.802
 5088SOL     OW20110   1.302   8.303   5.895
 5088SOL    HW120111   1.216   8.272   5.937
 5088SOL    HW220112   1.298   8.289   5.796
 5089SOL     OW20113   1.759   9.195   6.740
 5089SOL    HW120114   1.820   9.225   6.667
 5089SOL    HW220115   1.721   9.106   6.718
 5090SOL     OW20116   1.252   9.179   6.714
 5090SOL    HW120117   1.336   9.184   6.660
 5090SOL    HW220118   1.229   9.083   6.732
 5091SOL     OW20119   0.688   9.110   7.302
 5091SOL    HW120120   0.632   9.191   7.311
 5091SOL    HW220121   0.740   9.114   7.216
 5092SOL     OW20122   1.726   7.583   6.109
 5092SOL    HW120123   1.799   7.566   6.042
 5092SOL    HW220124   1.695   7.496   6.147
 5093SOL     OW20125   1.388   9.021   6.063
 5093SOL    HW120126   1.455   9.033   5.989
 5093SOL    HW220127   1.348   9.110   6.086
 5094SOL     OW20128   0.130   9.242   7.437
 5094SOL    HW120129   0.089   9.168   7.490
 5094SOL    HW220130   0.194   9.293   7.495
 5095SOL     OW20131   1.280   8.375   6.258
 5095SOL    HW120132   1.340   8.294   6.260
 5095SOL    HW220133   1.320   8.444   6.198
 5096SOL     OW20134   0.830   8.721   7.008
 5096SOL    HW120135   0.825   8.754   7.103
 5096SOL    HW220136   0.744   8.740   6.962
 5097SOL     OW20137   0.672   9.064   5.740
 5097SOL    HW120138   0.681   9.074   5.641
 5097SOL    HW220139   0.632   8.975   5.761
 5098SOL     OW20140   1.650   9.168   6.980
 5098SOL    HW120141   1.703   9.178   6.896
 5098SOL    HW220142   1.623   9.258   7.014
 5099SOL     OW20143   1.841   7.623   6.549
 5099SOL    HW120144   1.880   7.538   6.513
 5099SOL    HW220145   1.743   7.625   6.530
 5100SOL     OW20146   0.263   7.774   6.306
 5100SOL    HW120147   0.184   7.825   6.272
 5100SOL    HW220148   0.254   7.759   6.404
 5101SOL     OW20149   1.194   9.060   5.617
 5101SOL    HW120150   1.200   8.967   5.654
 5101SOL    HW220151   1.135   9.060   5.537
 5102SOL     OW20152   0.822   8.450   6.958
 5102SOL    HW120153   0.862   8.449   6.866
 5102SOL    HW220154   0.832   8.542   6.998
 5103SOL     OW20155   0.916   8.358   5.877
 5103SOL    HW120156   0.979   8.396   5.809
 5103SOL    HW220157   0.956   8.275   5.916
 5104SOL     OW20158   1.504   9.055   5.630
 5104SOL    HW120159   1.412   9.092   5.637
 5104SOL    HW220160   1.542   9.075   5.540
 5105SOL     OW20161   0.372   8.736   7.076
 5105SOL    HW120162   0.359   8.829   7.042
 5105SOL    HW220163   0.288   8.684   7.063
 5106SOL     OW20164   1.614   8.740   6.875
 5106SOL    HW120165   1.674   8.743   6.955
 5106SOL    HW220166   1.539   8.804   6.888
 5107SOL     OW20167   1.039   8.546   6.282
 5107SOL    HW120168   0.969   8.499   6.336
 5107SOL    HW220169   1.098   8.478   6.239
 5108SOL     OW20170   1.014   7.684   6.557
 5108SOL    HW120171   1.006   7.648   6.464
 5108SOL    HW220172   1.012   7.608   6.622
 5109SOL     OW20173   0.590   8.935   6.077
 5109SOL    HW120174   0.632   8.877   6.007
 5109SOL    HW220175   0.546   9.014   6.033
 5110SOL     OW20176   0.255   8.796   5.876
 5110SOL    HW120177   0.159   8.797   5.849
 5110SOL    HW220178   0.267   8.849   5.960
 5111SOL     OW20179   0.672   7.651   7.075
 5111SOL    HW120180   0.762   7.635   7.035
 5111SOL    HW220181   0.680   7.656   7.174
 5112SOL     OW20182   0.075   7.793   5.619
 5112SOL    HW120183  -0.017   7.765   5.590
 5112SOL    HW220184   0.106   7.870   5.563
 5113SOL     OW20185   1.440   8.304   6.984
 5113SOL    HW120186   1.383   8.356   6.921
 5113SOL    HW220187   1.536   8.316   6.960
 5114SOL     OW20188   0.072   7.614   5.904
 5114SOL    HW120189   0.055   7.697   5.850
 5114SOL    HW220190   0.162   7.577   5.882
 5115SOL     OW20191   1.183   8.783   5.705
 5115SOL    HW120192   1.084   8.772   5.707
 5115SOL    HW220193   1.217   8.798   5.798
 5116SOL     OW20194   0.613   8.290   7.017
 5116SOL    HW120195   0.669   8.371   7.000
 5116SOL    HW220196   0.672   8.210   7.020
 5117SOL     OW20197   1.493   9.215   6.545
 5117SOL    HW120198   1.526   9.279   6.476
 5117SOL    HW220199   1.559   9.209   6.620
 5118SOL     OW20200   0.716   8.013   7.294
 5118SOL    HW120201   0.735   8.078   7.368
 5118SOL    HW220202   0.776   7.933   7.303
 5119SOL     OW20203   1.450   8.668   7.219
 5119SOL    HW120204   1.441   8.658   7.318
 5119SOL    HW220205   1.546   8.661   7.193
 5120SOL     OW20206   0.390   9.189   7.146
 5120SOL    HW120207   0.299   9.230   7.144
 5120SOL    HW220208   0.383   9.095   7.178
 5121SOL     OW20209   1.674   8.331   6.840
 5121SOL    HW120210   1.647   8.242   6.803
 5121SOL    HW220211   1.675   8.399   6.767
 5122SOL     OW20212   1.225   7.773   6.035
 5122SOL    HW120213   1.290   7.699   6.024
 5122SOL    HW220214   1.245   7.823   6.119
 5123SOL     OW20215   0.594   8.193   6.238
 5123SOL    HW120216   0.644   8.278   6.219
 5123SOL    HW220217   0.506   8.195   6.190
 5124SOL     OW20218   1.777   7.790   7.228
 5124SOL    HW120219   1.760   7.821   7.134
 5124SOL    HW220220   1.693   7.753   7.266
 5125SOL     OW20221   1.730   8.382   7.103
 5125SOL    HW120222   1.768   8.473   7.118
 5125SOL    HW220223   1.722   8.365   7.004
 5126SOL     OW20224   0.859   8.822   5.602
 5126SOL    HW120225   0.813   8.837   5.690
 5126SOL    HW220226   0.903   8.907   5.572
 5127SOL     OW20227   0.661   9.238   6.539
 5127SOL    HW120228   0.615   9.326   6.526
 5127SOL    HW220229   0.760   9.250   6.532
 5128SOL     OW20230   0.859   8.404   6.447
 5128SOL    HW120231   0.913   8.335   6.495
 5128SOL    HW220232   0.827   8.473   6.513
 5129SOL     OW20233   1.083   8.432   5.673
 5129SOL    HW120234   1.060   8.485   5.591
 5129SOL    HW220235   1.164   8.376   5.654
 5130SOL     OW20236   1.861   9.017   6.437
 5130SOL    HW120237   1.790   9.005   6.367
 5130SOL    HW220238   1.862   8.938   6.497
 5131SOL     OW20239   0.221   8.762   7.430
 5131SOL    HW120240   0.156   8.689   7.409
 5131SOL    HW220241   0.225   8.776   7.528
 5132SOL     OW20242   0.079   8.688   6.239
 5132SOL    HW120243   0.078   8.641   6.327
 5132SOL    HW220244   0.161   8.660   6.188
 5133SOL     OW20245   0.672   8.839   7.210
 5133SOL    HW120246   0.594   8.789   7.248
 5133SOL    HW220247   0.669   8.934   7.241
 5134SOL     OW20248   1.824   7.640   6.813
 5134SOL    HW120249   1.820   7.550   6.857
 5134SOL    HW220250   1.827   7.629   6.714
 5135SOL     OW20251   1.705   8.935   6.690
 5135SOL    HW120252   1.612   8.910   6.663
 5135SOL    HW220253   1.731   8.885   6.772
 5136SOL     OW20254   0.317   7.995   6.866
 5136SOL    HW120255   0.355   7.936   6.938
 5136SOL    HW220256   0.357   7.969   6.778
 5137SOL     OW20257   0.812   9.034   6.273
 5137SOL    HW120258   0.844   9.044   6.179
 5137SOL    HW220259   0.733   8.972   6.275
 5138SOL     OW20260   1.424   7.662   6.698
 5138SOL    HW120261   1.476   7.597   6.753
 5138SOL    HW220262   1.375   7.725   6.759
 5139SOL     OW20263   1.001   7.482   6.740
 5139SOL    HW120264   0.938   7.410   6.709
 5139SOL    HW220265   1.094   7.446   6.740
 5140SOL     OW20266   0.770   8.778   5.887
 5140SOL    HW120267   0.724   8.691   5.904
 5140SOL    HW220268   0.861   8.775   5.928
 5141SOL     OW20269   0.618   9.015   6.870
 5141SOL    HW120270   0.613   9.097   6.927
 5141SOL    HW220271   0.707   9.012   6.825
 5142SOL     OW20272   1.352   7.500   5.754
 5142SOL    HW120273   1.387   7.459   5.670
 5142SOL    HW220274   1.262   7.462   5.774
 5143SOL     OW20275   1.300   7.901   6.277
 5143SOL    HW120276   1.241   7.981   6.281
 5143SOL    HW220277   1.315   7.866   6.370
 5144SOL     OW20278   1.593   7.669   6.468
 5144SOL    HW120279   1.509   7.668   6.522
 5144SOL    HW220280   1.595   7.752   6.412
 5145SOL     OW20281   0.039   8.525   5.886
 5145SOL    HW120282   0.138   8.514   5.877
 5145SOL    HW220283  -0.001   8.439   5.918
 5146SOL     OW20284   0.875   9.094   5.923
 5146SOL    HW120285   0.798   9.059   5.869
 5146SOL    HW220286   0.843   9.165   5.985
 5147SOL     OW20287   0.225   7.723   8.444
 5147SOL    HW120288   0.260   7.706   8.536
 5147SOL    HW220289   0.137   7.678   8.432
 5148SOL     OW20290   0.019   7.816   8.095
 5148SOL    HW120291  -0.063   7.859   8.134
 5148SOL    HW220292  -0.009   7.743   8.032
 5149SOL     OW20293   0.569   8.723   8.613
 5149SOL    HW120294   0.476   8.716   8.576
 5149SOL    HW220295   0.580   8.812   8.657
 5150SOL     OW20296   1.555   8.959   8.151
 5150SOL    HW120297   1.498   8.943   8.232
 5150SOL    HW220298   1.496   8.969   8.071
 5151SOL     OW20299   1.135   8.151   8.165
 5151SOL    HW120300   1.192   8.229   8.140
 5151SOL    HW220301   1.075   8.177   8.241
 5152SOL     OW20302   1.755   8.055   7.679
 5152SOL    HW120303   1.743   8.042   7.580
 5152SOL    HW220304   1.725   7.974   7.728
 5153SOL     OW20305   0.850   8.246   9.271
 5153SOL    HW120306   0.846   8.322   9.336
 5153SOL    HW220307   0.872   8.282   9.180
 5154SOL     OW20308   0.685   8.460   8.113
 5154SOL    HW120309   0.754   8.444   8.183
 5154SOL    HW220310   0.612   8.517   8.151
 5155SOL     OW20311   0.335   8.883   8.509
 5155SOL    HW120312   0.257   8.852   8.456
 5155SOL    HW220313   0.393   8.941   8.452
 5156SOL     OW20314   1.460   8.953   8.787
 5156SOL    HW120315   1.484   9.047   8.813
 5156SOL    HW220316   1.444   8.899   8.869
 5157SOL     OW20317   0.438   7.840   8.947
 5157SOL    HW120318   0.520   7.784   8.956
 5157SOL    HW220319   0.357   7.782   8.951
 5158SOL     OW20320   1.603   7.895   8.185
 5158SOL    HW120321   1.529   7.941   8.135
 5158SOL    HW220322   1.654   7.963   8.238
 5159SOL     OW20323   0.231   9.161   7.931
 5159SOL    HW120324   0.265   9.238   7.985
 5159SOL    HW220325   0.275   9.161   7.841
 5160SOL     OW20326   1.127   8.789   9.138
 5160SOL    HW120327   1.174   8.789   9.226
 5160SOL    HW220328   1.079   8.702   9.127
 5161SOL     OW20329   0.230   8.882   7.986
 5161SOL    HW120330   0.204   8.978   7.986
 5161SOL    HW220331   0.159   8.828   8.031
 5162SOL     OW20332   0.240   8.539   8.334
 5162SOL    HW120333   0.254   8.455   8.386
 5162SOL    HW220334   0.185   8.603   8.389
 5163SOL     OW20335   0.620   9.234   8.887
 5163SOL    HW120336   0.528   9.217   8.922
 5163SOL    HW220337   0.648   9.326   8.913
 5164SOL     OW20338   1.594   7.562   8.928
 5164SOL    HW120339   1.576   7.629   8.856
 5164SOL    HW220340   1.591   7.608   9.017
 5165SOL     OW20341   0.122   8.091   8.011
 5165SOL    HW120342   0.077   8.003   8.028
 5165SOL    HW220343   0.121   8.145   8.095
 5166SOL     OW20344   1.842   9.215   7.807
 5166SOL    HW120345   1.896   9.186   7.887
 5166SOL    HW220346   1.872   9.305   7.778
 5167SOL     OW20347   0.027   9.044   7.565
 5167SOL    HW120348   0.008   8.948   7.586
 5167SOL    HW220349  -0.006   9.102   7.640
 5168SOL     OW20350   1.689   8.370   8.060
 5168SOL    HW120351   1.784   8.341   8.068
 5168SOL    HW220352   1.681   8.435   7.985
 5169SOL     OW20353   1.641   8.556   7.880
 5169SOL    HW120354   1.727   8.558   7.828
 5169SOL    HW220355   1.655   8.603   7.968
 5170SOL     OW20356   0.113   8.185   9.045
 5170SOL    HW120357   0.201   8.172   9.090
 5170SOL    HW220358   0.100   8.282   9.023
 5171SOL     OW20359   1.293   8.676   8.871
 5171SOL    HW120360   1.330   8.603   8.813
 5171SOL    HW220361   1.345   8.681   8.956
 5172SOL     OW20362   0.809   7.452   7.950
 5172SOL    HW120363   0.849   7.543   7.941
 5172SOL    HW220364   0.709   7.460   7.956
 5173SOL     OW20365   0.197   8.424   8.712
 5173SOL    HW120366   0.286   8.379   8.698
 5173SOL    HW220367   0.124   8.359   8.693
 5174SOL     OW20368   1.525   8.447   7.638
 5174SOL    HW120369   1.462   8.371   7.651
 5174SOL    HW220370   1.573   8.465   7.724
 5175SOL     OW20371   1.187   9.240   9.064
 5175SOL    HW120372   1.211   9.300   8.988
 5175SOL    HW220373   1.194   9.145   9.034
 5176SOL     OW20374   0.317   7.699   9.249
 5176SOL    HW120375   0.388   7.770   9.255
 5176SOL    HW220376   0.229   7.738   9.277
 5177SOL     OW20377   1.466   8.865   8.401
 5177SOL    HW120378   1.407   8.871   8.481
 5177SOL    HW220379   1.451   8.777   8.355
 5178SOL     OW20380   1.667   9.162   8.020
 5178SOL    HW120381   1.626   9.139   7.932
 5178SOL    HW220382   1.649   9.088   8.085
 5179SOL     OW20383   0.598   8.177   7.718
 5179SOL    HW120384   0.622   8.246   7.650
 5179SOL    HW220385   0.520   8.210   7.772
 5180SOL     OW20386   1.576   9.110   7.755
 5180SOL    HW120387   1.665   9.156   7.758
 5180SOL    HW220388   1.555   9.086   7.660
 5181SOL     OW20389   0.807   8.053   8.913
 5181SOL    HW120390   0.760   8.050   9.002
 5181SOL    HW220391   0.756   7.998   8.847
 5182SOL     OW20392   1.394   7.917   9.122
 5182SOL    HW120393   1.374   7.960   9.210
 5182SOL    HW220394   1.472   7.855   9.131
 5183SOL     OW20395   0.973   8.338   9.020
 5183SOL    HW120396   1.019   8.254   8.991
 5183SOL    HW220397   0.917   8.372   8.945
 5184SOL     OW20398   0.991   7.858   8.690
 5184SOL    HW120399   0.914   7.892   8.744
 5184SOL    HW220400   0.957   7.807   8.611
 5185SOL     OW20401   1.041   8.149   7.877
 5185SOL    HW120402   1.067   8.145   7.973
 5185SOL    HW220403   0.956   8.098   7.863
 5186SOL     OW20404   0.076   8.259   8.237
 5186SOL    HW120405   0.175   8.247   8.246
 5186SOL    HW220406   0.052   8.354   8.258
 5187SOL     OW20407   0.130   9.269   9.019
 5187SOL    HW120408   0.120   9.254   9.118
 5187SOL    HW220409   0.044   9.305   8.983
 5188SOL     OW20410   0.865   7.796   7.643
 5188SOL    HW120411   0.924   7.859   7.594
 5188SOL    HW220412   0.884   7.702   7.614
 5189SOL     OW20413   1.719   8.033   9.279
 5189SOL    HW120414   1.693   8.122   9.243
 5189SOL    HW220415   1.717   7.965   9.206
 5190SOL     OW20416   1.362   8.592   7.993
 5190SOL    HW120417   1.445   8.563   7.945
 5190SOL    HW220418   1.313   8.659   7.937
 5191SOL     OW20419   0.550   7.644   8.333
 5191SOL    HW120420   0.545   7.639   8.433
 5191SOL    HW220421   0.552   7.740   8.304
 5192SOL     OW20422   0.351   9.249   8.301
 5192SOL    HW120423   0.401   9.163   8.307
 5192SOL    HW220424   0.416   9.326   8.298
 5193SOL     OW20425   1.795   8.514   8.321
 5193SOL    HW120426   1.733   8.499   8.245
 5193SOL    HW220427   1.743   8.525   8.406
 5194SOL     OW20428   1.227   8.998   8.954
 5194SOL    HW120429   1.233   8.921   9.018
 5194SOL    HW220430   1.175   8.972   8.874
 5195SOL     OW20431   1.458   8.183   8.176
 5195SOL    HW120432   1.453   8.118   8.251
 5195SOL    HW220433   1.538   8.242   8.189
 5196SOL     OW20434   0.461   8.714   9.175
 5196SOL    HW120435   0.411   8.715   9.089
 5196SOL    HW220436   0.398   8.696   9.251
 5197SOL     OW20437   1.111   9.224   7.685
 5197SOL    HW120438   1.051   9.162   7.735
 5197SOL    HW220439   1.142   9.180   7.600
 5198SOL     OW20440   0.202   7.733   8.946
 5198SOL    HW120441   0.122   7.793   8.933
 5198SOL    HW220442   0.192   7.684   9.032
 5199SOL     OW20443   1.632   8.825   7.529
 5199SOL    HW120444   1.600   8.919   7.519
 5199SOL    HW220445   1.556   8.762   7.517
 5200SOL     OW20446   0.464   9.191   7.771
 5200SOL    HW120447   0.497   9.230   7.857
 5200SOL    HW220448   0.540   9.184   7.706
 5201SOL     OW20449   1.400   7.555   7.874
 5201SOL    HW120450   1.376   7.518   7.784
 5201SOL    HW220451   1.499   7.571   7.878
 5202SOL     OW20452   0.249   9.233   8.689
 5202SOL    HW120453   0.306   9.168   8.739
 5202SOL    HW220454   0.233   9.200   8.596
 5203SOL     OW20455   0.940   9.146   8.352
 5203SOL    HW120456   1.020   9.089   8.373
 5203SOL    HW220457   0.891   9.106   8.275
 5204SOL     OW20458   0.382   8.148   7.928
 5204SOL    HW120459   0.427   8.058   7.925
 5204SOL    HW220460   0.288   8.137   7.961
 5205SOL     OW20461   1.547   7.670   9.177
 5205SOL    HW120462   1.542   7.707   9.269
 5205SOL    HW220463   1.475   7.601   9.165
 5206SOL     OW20464   0.614   7.570   7.565
 5206SOL    HW120465   0.712   7.548   7.572
 5206SOL    HW220466   0.583   7.553   7.472
 5207SOL     OW20467   0.781   7.712   9.197
 5207SOL    HW120468   0.848   7.651   9.240
 5207SOL    HW220469   0.708   7.731   9.262
 5208SOL     OW20470   0.888   8.962   8.643
 5208SOL    HW120471   0.865   8.937   8.549
 5208SOL    HW220472   0.949   8.893   8.682
 5209SOL     OW20473   1.351   8.038   8.881
 5209SOL    HW120474   1.379   7.995   8.966
 5209SOL    HW220475   1.376   8.134   8.882
 5210SOL     OW20476   0.922   7.951   8.347
 5210SOL    HW120477   0.897   7.942   8.251
 5210SOL    HW220478   0.970   7.869   8.378
 5211SOL     OW20479   0.539   7.512   7.960
 5211SOL    HW120480   0.458   7.513   8.018
 5211SOL    HW220481   0.542   7.595   7.905
 5212SOL     OW20482   1.434   8.636   7.489
 5212SOL    HW120483   1.466   8.560   7.546
 5212SOL    HW220484   1.342   8.663   7.519
 5213SOL     OW20485   0.297   7.483   7.619
 5213SOL    HW120486   0.346   7.567   7.598
 5213SOL    HW220487   0.359   7.418   7.664
 5214SOL     OW20488   0.935   7.684   7.928
 5214SOL    HW120489   0.887   7.725   7.850
 5214SOL    HW220490   1.034   7.682   7.909
 5215SOL     OW20491   1.076   8.131   8.912
 5215SOL    HW120492   0.996   8.070   8.915
 5215SOL    HW220493   1.157   8.078   8.888
 5216SOL     OW20494   1.227   9.018   8.241
 5216SOL    HW120495   1.248   9.092   8.176
 5216SOL    HW220496   1.295   9.018   8.314
 5217SOL     OW20497   0.459   8.600   8.189
 5217SOL    HW120498   0.388   8.573   8.254
 5217SOL    HW220499   0.433   8.572   8.096
 5218SOL     OW20500   1.271   9.245   8.039
 5218SOL    HW120501   1.315   9.309   7.975
 5218SOL    HW220502   1.221   9.297   8.109
 5219SOL     OW20503   1.032   7.997   7.464
 5219SOL    HW120504   0.991   8.079   7.425
 5219SOL    HW220505   1.096   8.023   7.537
 5220SOL     OW20506   0.078   8.004   8.834
 5220SOL    HW120507   0.170   8.003   8.793
 5220SOL    HW220508   0.072   8.078   8.901
 5221SOL     OW20509   0.561   7.670   8.595
 5221SOL    HW120510   0.599   7.586   8.632
 5221SOL    HW220511   0.473   7.689   8.639
 5222SOL     OW20512   0.866   7.902   8.090
 5222SOL    HW120513   0.834   7.974   8.028
 5222SOL    HW220514   0.890   7.821   8.037
 5223SOL     OW20515   1.017   7.487   8.201
 5223SOL    HW120516   0.945   7.492   8.132
 5223SOL    HW220517   0.993   7.418   8.270
 5224SOL     OW20518   1.429   8.621   8.315
 5224SOL    HW120519   1.374   8.537   8.308
 5224SOL    HW220520   1.455   8.650   8.223
 5225SOL     OW20521   1.466   8.038   8.440
 5225SOL    HW120522   1.436   7.943   8.447
 5225SOL    HW220523   1.539   8.054   8.506
 5226SOL     OW20524   1.857   8.281   7.825
 5226SOL    HW120525   1.899   8.217   7.889
 5226SOL    HW220526   1.819   8.230   7.747
 5227SOL     OW20527   0.488   8.833   7.622
 5227SOL    HW120528   0.401   8.818   7.669
 5227SOL    HW220529   0.471   8.859   7.527
 5228SOL     OW20530   1.664   8.728   8.105
 5228SOL    HW120531   1.763   8.736   8.119
 5228SOL    HW220532   1.619   8.812   8.136
 5229SOL     OW20533   1.390   8.023   7.526
 5229SOL    HW120534   1.336   8.002   7.607
 5229SOL    HW220535   1.481   7.982   7.535
 5230SOL     OW20536   0.527   7.704   7.776
 5230SOL    HW120537   0.554   7.645   7.701
 5230SOL    HW220538   0.527   7.799   7.745
 5231SOL     OW20539   1.754   8.671   9.036
 5231SOL    HW120540   1.845   8.632   9.023
 5231SOL    HW220541   1.762   8.767   9.060
 5232SOL     OW20542   1.064   8.795   8.788
 5232SOL    HW120543   0.984   8.772   8.843
 5232SOL    HW220544   1.147   8.769   8.837
 5233SOL     OW20545   1.592   9.077   9.073
 5233SOL    HW120546   1.619   9.111   8.983
 5233SOL    HW220547   1.671   9.039   9.119
 5234SOL     OW20548   1.111   8.643   8.548
 5234SOL    HW120549   1.071   8.687   8.629
 5234SOL    HW220550   1.070   8.680   8.465
 5235SOL     OW20551   1.638   8.547   8.527
 5235SOL    HW120552   1.643   8.628   8.586
 5235SOL    HW220553   1.552   8.549   8.476
 5236SOL     OW20554   0.915   7.537   8.850
 5236SOL    HW120555   0.940   7.517   8.755
 5236SOL    HW220556   0.987   7.593   8.892
 5237SOL     OW20557   0.980   8.564   9.167
 5237SOL    HW120558   0.881   8.570   9.177
 5237SOL    HW220559   1.003   8.484   9.111
 5238SOL     OW20560   0.705   8.498   7.816
 5238SOL    HW120561   0.691   8.505   7.915
 5238SOL    HW220562   0.789   8.447   7.798
 5239SOL     OW20563   0.410   8.261   8.699
 5239SOL    HW120564   0.496   8.273   8.749
 5239SOL    HW220565   0.368   8.174   8.726
 5240SOL     OW20566   0.064   9.012   8.779
 5240SOL    HW120567   0.018   9.094   8.745
 5240SOL    HW220568   0.162   9.031   8.788
 5241SOL     OW20569   0.367   8.548   7.949
 5241SOL    HW120570   0.360   8.631   7.893
 5241SOL    HW220571   0.371   8.468   7.889
 5242SOL     OW20572   0.566   7.985   8.313
 5242SOL    HW120573   0.578   8.051   8.239
 5242SOL    HW220574   0.612   8.019   8.396
 5243SOL     OW20575   1.252   8.796   7.836
 5243SOL    HW120576   1.302   8.873   7.876
 5243SOL    HW220577   1.157   8.798   7.868
 5244SOL     OW20578   1.272   8.893   8.590
 5244SOL    HW120579   1.319   8.906   8.677
 5244SOL    HW220580   1.206   8.819   8.599
 5245SOL     OW20581   1.582   8.087   7.920
 5245SOL    HW120582   1.551   8.148   7.993
 5245SOL    HW220583   1.632   8.139   7.851
 5246SOL     OW20584   0.354   8.958   8.777
 5246SOL    HW120585   0.333   8.914   8.690
 5246SOL    HW220586   0.451   8.984   8.780
 5247SOL     OW20587   1.587   8.227   9.118
 5247SOL    HW120588   1.495   8.265   9.113
 5247SOL    HW220589   1.647   8.274   9.053
 5248SOL     OW20590   1.013   7.553   9.218
 5248SOL    HW120591   1.019   7.638   9.166
 5248SOL    HW220592   1.045   7.477   9.161
 5249SOL     OW20593   0.504   7.498   9.188
 5249SOL    HW120594   0.462   7.441   9.118
 5249SOL    HW220595   0.438   7.567   9.220
 5250SOL     OW20596   0.573   8.318   8.477
 5250SOL    HW120597   0.617   8.407   8.468
 5250SOL    HW220598   0.510   8.318   8.554
 5251SOL     OW20599   1.360   8.310   8.493
 5251SOL    HW120600   1.285   8.310   8.427
 5251SOL    HW220601   1.397   8.218   8.502
 5252SOL     OW20602   1.209   7.973   7.723
 5252SOL    HW120603   1.222   7.889   7.777
 5252SOL    HW220604   1.180   8.047   7.783
 5253SOL     OW20605   0.307   7.661   8.679
 5253SOL    HW120606   0.284   7.698   8.769
 5253SOL    HW220607   0.277   7.566   8.673
 5254SOL     OW20608   0.037   8.758   8.730
 5254SOL    HW120609   0.090   8.709   8.798
 5254SOL    HW220610   0.059   8.856   8.735
 5255SOL     OW20611   0.732   8.082   8.512
 5255SOL    HW120612   0.791   8.056   8.436
 5255SOL    HW220613   0.704   8.178   8.501
 5256SOL     OW20614   1.728   8.383   9.302
 5256SOL    HW120615   1.682   8.376   9.213
 5256SOL    HW220616   1.666   8.427   9.368
 5257SOL     OW20617   0.307   7.511   8.066
 5257SOL    HW120618   0.296   7.605   8.099
 5257SOL    HW220619   0.302   7.448   8.143
 5258SOL     OW20620   1.622   7.815   7.822
 5258SOL    HW120621   1.624   7.739   7.886
 5258SOL    HW220622   1.574   7.892   7.862
 5259SOL     OW20623   1.023   8.214   8.414
 5259SOL    HW120624   1.038   8.235   8.510
 5259SOL    HW220625   0.993   8.119   8.405
 5260SOL     OW20626   0.980   9.021   9.148
 5260SOL    HW120627   0.960   9.065   9.060
 5260SOL    HW220628   1.019   8.930   9.132
 5261SOL     OW20629   1.859   8.966   9.053
 5261SOL    HW120630   1.873   8.993   8.958
 5261SOL    HW220631   1.942   8.988   9.106
 5262SOL     OW20632   1.540   7.722   7.573
 5262SOL    HW120633   1.479   7.647   7.596
 5262SOL    HW220634   1.562   7.774   7.656
 5263SOL     OW20635   1.303   8.286   7.490
 5263SOL    HW120636   1.337   8.193   7.505
 5263SOL    HW220637   1.321   8.313   7.395
 5264SOL     OW20638   0.319   8.258   8.397
 5264SOL    HW120639   0.412   8.294   8.402
 5264SOL    HW220640   0.313   8.173   8.449
 5265SOL     OW20641   0.339   7.957   8.454
 5265SOL    HW120642   0.287   7.874   8.437
 5265SOL    HW220643   0.416   7.962   8.390
 5266SOL     OW20644   1.138   7.828   9.126
 5266SOL    HW120645   1.093   7.891   9.190
 5266SOL    HW220646   1.231   7.859   9.109
 5267SOL     OW20647   0.504   9.016   8.358
 5267SOL    HW120648   0.570   9.090   8.367
 5267SOL    HW220649   0.548   8.937   8.316
 5268SOL     OW20650   1.002   8.244   8.686
 5268SOL    HW120651   1.043   8.212   8.772
 5268SOL    HW220652   0.906   8.217   8.683
 5269SOL     OW20653   0.040   7.992   8.562
 5269SOL    HW120654   0.125   7.959   8.521
 5269SOL    HW220655   0.053   8.007   8.660
 5270SOL     OW20656   0.189   7.968   9.170
 5270SOL    HW120657   0.248   7.928   9.100
 5270SOL    HW220658   0.131   8.039   9.129
 5271SOL     OW20659   1.369   8.398   9.108
 5271SOL    HW120660   1.408   8.487   9.128
 5271SOL    HW220661   1.379   8.378   9.011
 5272SOL     OW20662   0.815   8.020   7.773
 5272SOL    HW120663   0.822   7.931   7.727
 5272SOL    HW220664   0.721   8.054   7.765
 5273SOL     OW20665   0.252   9.012   9.192
 5273SOL    HW120666   0.222   9.069   9.268
 5273SOL    HW220667   0.245   8.915   9.218
 5274SOL     OW20668   0.671   7.912   8.717
 5274SOL    HW120669   0.637   7.823   8.687
 5274SOL    HW220670   0.697   7.966   8.637
 5275SOL     OW20671   0.930   9.126   8.913
 5275SOL    HW120672   0.906   9.108   8.818
 5275SOL    HW220673   0.960   9.220   8.923
 5276SOL     OW20674   0.473   7.948   7.639
 5276SOL    HW120675   0.534   8.028   7.643
 5276SOL    HW220676   0.378   7.979   7.646
 5277SOL     OW20677   0.159   8.585   8.914
 5277SOL    HW120678   0.181   8.524   8.990
 5277SOL    HW220679   0.169   8.536   8.828
 5278SOL     OW20680   1.347   8.507   8.682
 5278SOL    HW120681   1.371   8.444   8.608
 5278SOL    HW220682   1.257   8.547   8.664
 5279SOL     OW20683   1.302   8.303   7.757
 5279SOL    HW120684   1.216   8.272   7.799
 5279SOL    HW220685   1.298   8.289   7.658
 5280SOL     OW20686   1.252   9.179   8.576
 5280SOL    HW120687   1.336   9.184   8.522
 5280SOL    HW220688   1.229   9.083   8.594
 5281SOL     OW20689   0.083   8.706   8.470
 5281SOL    HW120690   0.078   8.705   8.570
 5281SOL    HW220691   0.000   8.665   8.432
 5282SOL     OW20692   0.688   9.110   9.164
 5282SOL    HW120693   0.632   9.191   9.173
 5282SOL    HW220694   0.740   9.114   9.078
 5283SOL     OW20695   1.726   7.583   7.971
 5283SOL    HW120696   1.799   7.566   7.904
 5283SOL    HW220697   1.695   7.496   8.009
 5284SOL     OW20698   1.388   9.021   7.925
 5284SOL    HW120699   1.455   9.033   7.851
 5284SOL    HW220700   1.348   9.110   7.948
 5285SOL     OW20701   0.130   9.242   9.299
 5285SOL    HW120702   0.089   9.168   9.352
 5285SOL    HW220703   0.194   9.293   9.357
 5286SOL     OW20704   1.280   8.375   8.120
 5286SOL    HW120705   1.340   8.294   8.122
 5286SOL    HW220706   1.320   8.444   8.060
 5287SOL     OW20707   0.830   8.721   8.870
 5287SOL    HW120708   0.825   8.754   8.965
 5287SOL    HW220709   0.744   8.740   8.824
 5288SOL     OW20710   0.672   9.064   7.602
 5288SOL    HW120711   0.681   9.074   7.503
 5288SOL    HW220712   0.632   8.975   7.623
 5289SOL     OW20713   1.650   9.168   8.842
 5289SOL    HW120714   1.703   9.178   8.758
 5289SOL    HW220715   1.623   9.258   8.876
 5290SOL     OW20716   1.841   7.623   8.411
 5290SOL    HW120717   1.880   7.538   8.375
 5290SOL    HW220718   1.743   7.625   8.392
 5291SOL     OW20719   0.263   7.774   8.168
 5291SOL    HW120720   0.184   7.825   8.134
 5291SOL    HW220721   0.254   7.759   8.266
 5292SOL     OW20722   1.194   9.060   7.479
 5292SOL    HW120723   1.200   8.967   7.516
 5292SOL    HW220724   1.135   9.060   7.399
 5293SOL     OW20725   0.822   8.450   8.820
 5293SOL    HW120726   0.862   8.449   8.728
 5293SOL    HW220727   0.832   8.542   8.860
 5294SOL     OW20728   0.916   8.358   7.739
 5294SOL    HW120729   0.979   8.396   7.671
 5294SOL    HW220730   0.956   8.275   7.778
 5295SOL     OW20731   1.504   9.055   7.492
 5295SOL    HW120732   1.412   9.092   7.499
 5295SOL    HW220733   1.542   9.075   7.402
 5296SOL     OW20734   0.372   8.736   8.938
 5296SOL    HW120735   0.359   8.829   8.904
 5296SOL    HW220736   0.288   8.684   8.925
 5297SOL     OW20737   1.614   8.740   8.737
 5297SOL    HW120738   1.674   8.743   8.817
 5297SOL    HW220739   1.539   8.804   8.750
 5298SOL     OW20740   1.039   8.546   8.144
 5298SOL    HW120741   0.969   8.499   8.198
 5298SOL    HW220742   1.098   8.478   8.101
 5299SOL     OW20743   0.590   8.935   7.939
 5299SOL    HW120744   0.632   8.877   7.869
 5299SOL    HW220745   0.546   9.014   7.895
 5300SOL     OW20746   1.709   7.833   8.829
 5300SOL    HW120747   1.782   7.902   8.833
 5300SOL    HW220748   1.737   7.758   8.770
 5301SOL     OW20749   0.255   8.796   7.738
 5301SOL    HW120750   0.159   8.797   7.711
 5301SOL    HW220751   0.267   8.849   7.822
 5302SOL     OW20752   0.105   8.461   9.174
 5302SOL    HW120753   0.028   8.428   9.228
 5302SOL    HW220754   0.190   8.431   9.216
 5303SOL     OW20755   0.672   7.651   8.937
 5303SOL    HW120756   0.762   7.635   8.897
 5303SOL    HW220757   0.680   7.656   9.036
 5304SOL     OW20758   0.075   7.793   7.481
 5304SOL    HW120759  -0.017   7.765   7.452
 5304SOL    HW220760   0.106   7.870   7.425
 5305SOL     OW20761   1.440   8.304   8.846
 5305SOL    HW120762   1.383   8.356   8.783
 5305SOL    HW220763   1.536   8.316   8.822
 5306SOL     OW20764   0.072   7.614   7.766
 5306SOL    HW120765   0.055   7.697   7.712
 5306SOL    HW220766   0.162   7.577   7.744
 5307SOL     OW20767   1.183   8.783   7.567
 5307SOL    HW120768   1.084   8.772   7.569
 5307SOL    HW220769   1.217   8.798   7.660
 5308SOL     OW20770   1.493   9.215   8.407
 5308SOL    HW120771   1.526   9.279   8.338
 5308SOL    HW220772   1.559   9.209   8.482
 5309SOL     OW20773   0.716   8.013   9.156
 5309SOL    HW120774   0.735   8.078   9.230
 5309SOL    HW220775   0.776   7.933   9.165
 5310SOL     OW20776   1.450   8.668   9.081
 5310SOL    HW120777   1.441   8.658   9.180
 5310SOL    HW220778   1.546   8.661   9.055
 5311SOL     OW20779   0.390   9.189   9.008
 5311SOL    HW120780   0.299   9.230   9.006
 5311SOL    HW220781   0.383   9.095   9.040
 5312SOL     OW20782   1.674   8.331   8.702
 5312SOL    HW120783   1.647   8.242   8.665
 5312SOL    HW220784   1.675   8.399   8.629
 5313SOL     OW20785   1.225   7.773   7.897
 5313SOL    HW120786   1.290   7.699   7.886
 5313SOL    HW220787   1.245   7.823   7.981
 5314SOL     OW20788   0.594   8.193   8.100
 5314SOL    HW120789   0.644   8.278   8.081
 5314SOL    HW220790   0.506   8.195   8.052
 5315SOL     OW20791   1.777   7.790   9.090
 5315SOL    HW120792   1.760   7.821   8.996
 5315SOL    HW220793   1.693   7.753   9.128
 5316SOL     OW20794   1.730   8.382   8.965
 5316SOL    HW120795   1.768   8.473   8.980
 5316SOL    HW220796   1.722   8.365   8.866
 5317SOL     OW20797   0.859   8.822   7.464
 5317SOL    HW120798   0.813   8.837   7.552
 5317SOL    HW220799   0.903   8.907   7.434
 5318SOL     OW20800   0.661   9.238   8.401
 5318SOL    HW120801   0.615   9.326   8.388
 5318SOL    HW220802   0.760   9.250   8.394
 5319SOL     OW20803   0.859   8.404   8.309
 5319SOL    HW120804   0.913   8.335   8.357
 5319SOL    HW220805   0.827   8.473   8.375
 5320SOL     OW20806   0.221   8.762   9.292
 5320SOL    HW120807   0.156   8.689   9.271
 5320SOL    HW220808   0.225   8.776   9.390
 5321SOL     OW20809   0.079   8.688   8.101
 5321SOL    HW120810   0.078   8.641   8.189
 5321SOL    HW220811   0.161   8.660   8.050
 5322SOL     OW20812   0.672   8.839   9.072
 5322SOL    HW120813   0.594   8.789   9.110
 5322SOL    HW220814   0.669   8.934   9.103
 5323SOL     OW20815   1.824   7.640   8.675
 5323SOL    HW120816   1.820   7.550   8.719
 5323SOL    HW220817   1.827   7.629   8.576
 5324SOL     OW20818   0.428   7.872   7.968
 5324SOL    HW120819   0.458   7.800   7.906
 5324SOL    HW220820   0.389   7.832   8.051
 5325SOL     OW20821   1.705   8.935   8.552
 5325SOL    HW120822   1.612   8.910   8.525
 5325SOL    HW220823   1.731   8.885   8.634
 5326SOL     OW20824   0.317   7.995   8.728
 5326SOL    HW120825   0.355   7.936   8.800
 5326SOL    HW220826   0.357   7.969   8.640
 5327SOL     OW20827   0.812   9.034   8.135
 5327SOL    HW120828   0.844   9.044   8.041
 5327SOL    HW220829   0.733   8.972   8.137
 5328SOL     OW20830   0.770   8.778   7.749
 5328SOL    HW120831   0.724   8.691   7.766
 5328SOL    HW220832   0.861   8.775   7.790
 5329SOL     OW20833   0.618   9.015   8.732
 5329SOL    HW120834   0.613   9.097   8.789
 5329SOL    HW220835   0.707   9.012   8.687
 5330SOL     OW20836   1.352   7.500   7.616
 5330SOL    HW120837   1.387   7.459   7.532
 5330SOL    HW220838   1.262   7.462   7.636
 5331SOL     OW20839   1.300   7.901   8.139
 5331SOL    HW120840   1.241   7.981   8.143
 5331SOL    HW220841   1.315   7.866   8.232
 5332SOL     OW20842   1.593   7.669   8.330
 5332SOL    HW120843   1.509   7.668   8.384
 5332SOL    HW220844   1.595   7.752   8.274
 5333SOL     OW20845   0.875   9.094   7.785
 5333SOL    HW120846   0.798   9.059   7.731
 5333SOL    HW220847   0.843   9.165   7.847
 5334SOL     OW20848   0.230   8.076   9.423
 5334SOL    HW120849   0.137   8.074   9.460
 5334SOL    HW220850   0.231   8.037   9.331
 5335SOL     OW20851   1.755   8.055   9.541
 5335SOL    HW120852   1.743   8.042   9.442
 5335SOL    HW220853   1.725   7.974   9.590
 5336SOL     OW20854   0.231   9.161   9.793
 5336SOL    HW120855   0.265   9.238   9.847
 5336SOL    HW220856   0.275   9.161   9.703
 5337SOL     OW20857   0.230   8.882   9.848
 5337SOL    HW120858   0.204   8.978   9.848
 5337SOL    HW220859   0.159   8.828   9.893
 5338SOL     OW20860   0.606   8.412   9.433
 5338SOL    HW120861   0.613   8.496   9.379
 5338SOL    HW220862   0.652   8.425   9.521
 5339SOL     OW20863   0.122   8.091   9.873
 5339SOL    HW120864   0.077   8.003   9.890
 5339SOL    HW220865   0.121   8.145   9.957
 5340SOL     OW20866   1.842   9.215   9.669
 5340SOL    HW120867   1.896   9.186   9.749
 5340SOL    HW220868   1.872   9.305   9.640
 5341SOL     OW20869   0.027   9.044   9.427
 5341SOL    HW120870   0.008   8.948   9.448
 5341SOL    HW220871  -0.006   9.102   9.502
 5342SOL     OW20872   1.689   8.370   9.922
 5342SOL    HW120873   1.784   8.341   9.930
 5342SOL    HW220874   1.681   8.435   9.847
 5343SOL     OW20875   1.641   8.556   9.742
 5343SOL    HW120876   1.727   8.558   9.690
 5343SOL    HW220877   1.655   8.603   9.830
 5344SOL     OW20878   0.613   8.813  10.036
 5344SOL    HW120879   0.564   8.726  10.045
 5344SOL    HW220880   0.590   8.856   9.949
 5345SOL     OW20881   0.809   7.452   9.812
 5345SOL    HW120882   0.849   7.543   9.803
 5345SOL    HW220883   0.709   7.460   9.818
 5346SOL     OW20884   1.525   8.447   9.500
 5346SOL    HW120885   1.462   8.371   9.513
 5346SOL    HW220886   1.573   8.465   9.586
 5347SOL     OW20887   0.598   8.177   9.580
 5347SOL    HW120888   0.622   8.246   9.512
 5347SOL    HW220889   0.520   8.210   9.634
 5348SOL     OW20890   1.576   9.110   9.617
 5348SOL    HW120891   1.665   9.156   9.620
 5348SOL    HW220892   1.555   9.086   9.522
 5349SOL     OW20893   1.041   8.149   9.739
 5349SOL    HW120894   1.067   8.145   9.835
 5349SOL    HW220895   0.956   8.098   9.725
 5350SOL     OW20896   0.076   8.259  10.099
 5350SOL    HW120897   0.175   8.247  10.108
 5350SOL    HW220898   0.052   8.354  10.120
 5351SOL     OW20899   0.865   7.796   9.505
 5351SOL    HW120900   0.924   7.859   9.456
 5351SOL    HW220901   0.884   7.702   9.476
 5352SOL     OW20902   1.362   8.592   9.855
 5352SOL    HW120903   1.445   8.563   9.807
 5352SOL    HW220904   1.313   8.659   9.799
 5353SOL     OW20905   1.008   8.904   9.787
 5353SOL    HW120906   0.962   8.976   9.735
 5353SOL    HW220907   1.004   8.924   9.885
 5354SOL     OW20908   0.351   9.249  10.163
 5354SOL    HW120909   0.401   9.163  10.169
 5354SOL    HW220910   0.416   9.326  10.160
 5355SOL     OW20911   0.321   8.391   9.552
 5355SOL    HW120912   0.403   8.430   9.510
 5355SOL    HW220913   0.294   8.309   9.503
 5356SOL     OW20914   1.111   9.224   9.547
 5356SOL    HW120915   1.051   9.162   9.597
 5356SOL    HW220916   1.142   9.180   9.462
 5357SOL     OW20917   1.632   8.825   9.391
 5357SOL    HW120918   1.600   8.919   9.381
 5357SOL    HW220919   1.556   8.762   9.379
 5358SOL     OW20920   0.464   9.191   9.633
 5358SOL    HW120921   0.497   9.230   9.719
 5358SOL    HW220922   0.540   9.184   9.568
 5359SOL     OW20923   1.400   7.555   9.736
 5359SOL    HW120924   1.376   7.518   9.646
 5359SOL    HW220925   1.499   7.571   9.740
 5360SOL     OW20926   0.382   8.148   9.790
 5360SOL    HW120927   0.427   8.058   9.787
 5360SOL    HW220928   0.288   8.137   9.823
 5361SOL     OW20929   0.614   7.570   9.427
 5361SOL    HW120930   0.712   7.548   9.434
 5361SOL    HW220931   0.583   7.553   9.334
 5362SOL     OW20932   0.539   7.512   9.822
 5362SOL    HW120933   0.458   7.513   9.880
 5362SOL    HW220934   0.542   7.595   9.767
 5363SOL     OW20935   1.434   8.636   9.351
 5363SOL    HW120936   1.466   8.560   9.408
 5363SOL    HW220937   1.342   8.663   9.381
 5364SOL     OW20938   0.297   7.483   9.481
 5364SOL    HW120939   0.346   7.567   9.460
 5364SOL    HW220940   0.359   7.418   9.526
 5365SOL     OW20941   0.935   7.684   9.790
 5365SOL    HW120942   0.887   7.725   9.712
 5365SOL    HW220943   1.034   7.682   9.771
 5366SOL     OW20944   0.459   8.600  10.051
 5366SOL    HW120945   0.388   8.573  10.116
 5366SOL    HW220946   0.433   8.572   9.958
 5367SOL     OW20947   1.032   7.997   9.326
 5367SOL    HW120948   0.991   8.079   9.287
 5367SOL    HW220949   1.096   8.023   9.399
 5368SOL     OW20950   0.866   7.902   9.952
 5368SOL    HW120951   0.834   7.974   9.890
 5368SOL    HW220952   0.890   7.821   9.899
 5369SOL     OW20953   1.857   8.281   9.687
 5369SOL    HW120954   1.899   8.217   9.751
 5369SOL    HW220955   1.819   8.230   9.609
 5370SOL     OW20956   0.488   8.833   9.484
 5370SOL    HW120957   0.401   8.818   9.531
 5370SOL    HW220958   0.471   8.859   9.389
 5371SOL     OW20959   1.390   8.023   9.388
 5371SOL    HW120960   1.336   8.002   9.469
 5371SOL    HW220961   1.481   7.982   9.397
 5372SOL     OW20962   0.527   7.704   9.638
 5372SOL    HW120963   0.554   7.645   9.563
 5372SOL    HW220964   0.527   7.799   9.607
 5373SOL     OW20965   0.705   8.498   9.678
 5373SOL    HW120966   0.691   8.505   9.777
 5373SOL    HW220967   0.789   8.447   9.660
 5374SOL     OW20968   0.367   8.548   9.811
 5374SOL    HW120969   0.360   8.631   9.755
 5374SOL    HW220970   0.371   8.468   9.751
 5375SOL     OW20971   1.252   8.796   9.698
 5375SOL    HW120972   1.302   8.873   9.738
 5375SOL    HW220973   1.157   8.798   9.730
 5376SOL     OW20974   1.582   8.087   9.782
 5376SOL    HW120975   1.551   8.148   9.855
 5376SOL    HW220976   1.632   8.139   9.713
 5377SOL     OW20977   1.209   7.973   9.585
 5377SOL    HW120978   1.222   7.889   9.639
 5377SOL    HW220979   1.180   8.047   9.645
 5378SOL     OW20980   0.307   7.511   9.928
 5378SOL    HW120981   0.296   7.605   9.961
 5378SOL    HW220982   0.302   7.448  10.005
 5379SOL     OW20983   1.622   7.815   9.684
 5379SOL    HW120984   1.624   7.739   9.748
 5379SOL    HW220985   1.574   7.892   9.724
 5380SOL     OW20986   1.540   7.722   9.435
 5380SOL    HW120987   1.479   7.647   9.458
 5380SOL    HW220988   1.562   7.774   9.518
 5381SOL     OW20989   1.303   8.286   9.352
 5381SOL    HW120990   1.337   8.193   9.367
 5381SOL    HW220991   1.321   8.313   9.257
 5382SOL     OW20992   0.008   8.774   9.510
 5382SOL    HW120993  -0.085   8.795   9.479
 5382SOL    HW220994   0.018   8.675   9.523
 5383SOL     OW20995   0.815   8.020   9.635
 5383SOL    HW120996   0.822   7.931   9.589
 5383SOL    HW220997   0.721   8.054   9.627
 5384SOL     OW20998   0.473   7.948   9.501
 5384SOL    HW120999   0.534   8.028   9.505
 5384SOL    HW221000   0.378   7.979   9.508
 5385SOL     OW21001   1.302   8.303   9.619
 5385SOL    HW121002   1.216   8.272   9.661
 5385SOL    HW221003   1.298   8.289   9.520
 5386SOL     OW21004   1.726   7.583   9.833
 5386SOL    HW121005   1.799   7.566   9.766
 5386SOL    HW221006   1.695   7.496   9.871
 5387SOL     OW21007   1.388   9.021   9.787
 5387SOL    HW121008   1.455   9.033   9.713
 5387SOL    HW221009   1.348   9.110   9.810
 5388SOL     OW21010   0.672   9.064   9.464
 5388SOL    HW121011   0.681   9.074   9.365
 5388SOL    HW221012   0.632   8.975   9.485
 5389SOL     OW21013   1.194   9.060   9.341
 5389SOL    HW121014   1.200   8.967   9.378
 5389SOL    HW221015   1.135   9.060   9.261
 5390SOL     OW21016   0.916   8.358   9.601
 5390SOL    HW121017   0.979   8.396   9.533
 5390SOL    HW221018   0.956   8.275   9.640
 5391SOL     OW21019   1.504   9.055   9.354
 5391SOL    HW121020   1.412   9.092   9.361
 5391SOL    HW221021   1.542   9.075   9.264
 5392SOL     OW21022   0.590   8.935   9.801
 5392SOL    HW121023   0.632   8.877   9.731
 5392SOL    HW221024   0.546   9.014   9.757
 5393SOL     OW21025   0.255   8.796   9.600
 5393SOL    HW121026   0.159   8.797   9.573
 5393SOL    HW221027   0.267   8.849   9.684
 5394SOL     OW21028   0.075   7.793   9.343
 5394SOL    HW121029  -0.017   7.765   9.314
 5394SOL    HW221030   0.106   7.870   9.287
 5395SOL     OW21031   0.072   7.614   9.628
 5395SOL    HW121032   0.055   7.697   9.574
 5395SOL    HW221033   0.162   7.577   9.606
 5396SOL     OW21034   1.183   8.783   9.429
 5396SOL    HW121035   1.084   8.772   9.431
 5396SOL    HW221036   1.217   8.798   9.522
 5397SOL     OW21037   1.225   7.773   9.759
 5397SOL    HW121038   1.290   7.699   9.748
 5397SOL    HW221039   1.245   7.823   9.843
 5398SOL     OW21040   0.594   8.193   9.962
 5398SOL    HW121041   0.644   8.278   9.943
 5398SOL    HW221042   0.506   8.195   9.914
 5399SOL     OW21043   0.859   8.822   9.326
 5399SOL    HW121044   0.813   8.837   9.414
 5399SOL    HW221045   0.903   8.907   9.296
 5400SOL     OW21046   1.083   8.432   9.397
 5400SOL    HW121047   1.060   8.485   9.315
 5400SOL    HW221048   1.164   8.376   9.378
 5401SOL     OW21049   0.079   8.688   9.963
 5401SOL    HW121050   0.078   8.641  10.051
 5401SOL    HW221051   0.161   8.660   9.912
 5402SOL     OW21052   0.428   7.872   9.830
 5402SOL    HW121053   0.458   7.800   9.768
 5402SOL    HW221054   0.389   7.832   9.913
 5403SOL     OW21055   0.770   8.778   9.611
 5403SOL    HW121056   0.724   8.691   9.628
 5403SOL    HW221057   0.861   8.775   9.652
 5404SOL     OW21058   1.352   7.500   9.478
 5404SOL    HW121059   1.387   7.459   9.394
 5404SOL    HW221060   1.262   7.462   9.498
 5405SOL     OW21061   0.039   8.525   9.610
 5405SOL    HW121062   0.138   8.514   9.601
 5405SOL    HW221063  -0.001   8.439   9.642
 5406SOL     OW21064   0.875   9.094   9.647
 5406SOL    HW121065   0.798   9.059   9.593
 5406SOL    HW221066   0.843   9.165   9.709
 5407SOL     OW21067   0.225   9.585   0.996
 5407SOL    HW121068   0.260   9.568   1.088
 5407SOL    HW221069   0.137   9.540   0.984
 5408SOL     OW21070   0.019   9.678   0.647
 5408SOL    HW121071  -0.063   9.721   0.686
 5408SOL    HW221072  -0.009   9.605   0.584
 5409SOL     OW21073   1.755   9.917   0.231
 5409SOL    HW121074   1.743   9.904   0.132
 5409SOL    HW221075   1.725   9.836   0.280
 5410SOL     OW21076   0.438   9.702   1.499
 5410SOL    HW121077   0.520   9.646   1.508
 5410SOL    HW221078   0.357   9.644   1.503
 5411SOL     OW21079   1.603   9.757   0.737
 5411SOL    HW121080   1.529   9.803   0.687
 5411SOL    HW221081   1.654   9.825   0.790
 5412SOL     OW21082   1.594   9.424   1.480
 5412SOL    HW121083   1.576   9.491   1.408
 5412SOL    HW221084   1.591   9.470   1.569
 5413SOL     OW21085   0.122   9.953   0.563
 5413SOL    HW121086   0.077   9.865   0.580
 5413SOL    HW221087   0.121  10.007   0.647
 5414SOL     OW21088   0.809   9.314   0.502
 5414SOL    HW121089   0.849   9.405   0.493
 5414SOL    HW221090   0.709   9.322   0.508
 5415SOL     OW21091   0.317   9.561   1.801
 5415SOL    HW121092   0.388   9.632   1.807
 5415SOL    HW221093   0.229   9.600   1.829
 5416SOL     OW21094   1.281   9.655   0.944
 5416SOL    HW121095   1.195   9.605   0.931
 5416SOL    HW221096   1.343   9.601   1.000
 5417SOL     OW21097   0.807   9.915   1.465
 5417SOL    HW121098   0.760   9.912   1.554
 5417SOL    HW221099   0.756   9.860   1.399
 5418SOL     OW21100   1.394   9.779   1.674
 5418SOL    HW121101   1.374   9.822   1.762
 5418SOL    HW221102   1.472   9.717   1.683
 5419SOL     OW21103   0.991   9.720   1.242
 5419SOL    HW121104   0.914   9.754   1.296
 5419SOL    HW221105   0.957   9.669   1.163
 5420SOL     OW21106   1.041  10.011   0.429
 5420SOL    HW121107   1.067  10.007   0.525
 5420SOL    HW221108   0.956   9.960   0.415
 5421SOL     OW21109   0.076  10.121   0.789
 5421SOL    HW121110   0.175  10.109   0.798
 5421SOL    HW221111   0.052  10.216   0.810
 5422SOL     OW21112   0.865   9.658   0.195
 5422SOL    HW121113   0.924   9.721   0.146
 5422SOL    HW221114   0.884   9.564   0.166
 5423SOL     OW21115   1.719   9.895   1.831
 5423SOL    HW121116   1.693   9.984   1.795
 5423SOL    HW221117   1.717   9.827   1.758
 5424SOL     OW21118   0.550   9.506   0.885
 5424SOL    HW121119   0.545   9.501   0.985
 5424SOL    HW221120   0.552   9.602   0.856
 5425SOL     OW21121   1.458  10.045   0.728
 5425SOL    HW121122   1.453   9.980   0.803
 5425SOL    HW221123   1.538  10.104   0.741
 5426SOL     OW21124   0.202   9.595   1.498
 5426SOL    HW121125   0.122   9.655   1.485
 5426SOL    HW221126   0.192   9.546   1.584
 5427SOL     OW21127   1.400   9.417   0.426
 5427SOL    HW121128   1.376   9.380   0.336
 5427SOL    HW221129   1.499   9.433   0.430
 5428SOL     OW21130   1.547   9.532   1.729
 5428SOL    HW121131   1.542   9.569   1.821
 5428SOL    HW221132   1.475   9.463   1.717
 5429SOL     OW21133   0.614   9.432   0.117
 5429SOL    HW121134   0.712   9.410   0.124
 5429SOL    HW221135   0.583   9.415   0.024
 5430SOL     OW21136   0.781   9.574   1.749
 5430SOL    HW121137   0.848   9.513   1.792
 5430SOL    HW221138   0.708   9.593   1.814
 5431SOL     OW21139   1.351   9.900   1.433
 5431SOL    HW121140   1.379   9.857   1.518
 5431SOL    HW221141   1.376   9.996   1.434
 5432SOL     OW21142   0.922   9.813   0.899
 5432SOL    HW121143   0.897   9.804   0.803
 5432SOL    HW221144   0.970   9.731   0.930
 5433SOL     OW21145   0.539   9.374   0.512
 5433SOL    HW121146   0.458   9.375   0.570
 5433SOL    HW221147   0.542   9.457   0.457
 5434SOL     OW21148   0.935   9.546   0.480
 5434SOL    HW121149   0.887   9.587   0.402
 5434SOL    HW221150   1.034   9.544   0.461
 5435SOL     OW21151   1.076   9.993   1.464
 5435SOL    HW121152   0.996   9.932   1.467
 5435SOL    HW221153   1.157   9.940   1.440
 5436SOL     OW21154   1.032   9.859   0.016
 5436SOL    HW121155   0.991   9.941  -0.023
 5436SOL    HW221156   1.096   9.885   0.089
 5437SOL     OW21157   0.561   9.532   1.147
 5437SOL    HW121158   0.599   9.448   1.184
 5437SOL    HW221159   0.473   9.551   1.191
 5438SOL     OW21160   0.866   9.764   0.642
 5438SOL    HW121161   0.834   9.836   0.580
 5438SOL    HW221162   0.890   9.683   0.589
 5439SOL     OW21163   1.017   9.349   0.753
 5439SOL    HW121164   0.945   9.354   0.684
 5439SOL    HW221165   0.993   9.280   0.822
 5440SOL     OW21166   1.466   9.900   0.992
 5440SOL    HW121167   1.436   9.805   0.999
 5440SOL    HW221168   1.539   9.916   1.058
 5441SOL     OW21169   0.527   9.566   0.328
 5441SOL    HW121170   0.554   9.507   0.253
 5441SOL    HW221171   0.527   9.661   0.297
 5442SOL     OW21172   1.274   9.696   1.262
 5442SOL    HW121173   1.295   9.770   1.326
 5442SOL    HW221174   1.185   9.713   1.219
 5443SOL     OW21175   0.566   9.847   0.865
 5443SOL    HW121176   0.578   9.913   0.791
 5443SOL    HW221177   0.612   9.881   0.948
 5444SOL     OW21178   1.582   9.949   0.472
 5444SOL    HW121179   1.551  10.010   0.545
 5444SOL    HW221180   1.632  10.001   0.403
 5445SOL     OW21181   0.504   9.360   1.740
 5445SOL    HW121182   0.462   9.303   1.670
 5445SOL    HW221183   0.438   9.429   1.772
 5446SOL     OW21184   1.209   9.835   0.275
 5446SOL    HW121185   1.222   9.751   0.329
 5446SOL    HW221186   1.180   9.909   0.335
 5447SOL     OW21187   0.307   9.523   1.231
 5447SOL    HW121188   0.284   9.560   1.321
 5447SOL    HW221189   0.277   9.428   1.225
 5448SOL     OW21190   0.732   9.944   1.064
 5448SOL    HW121191   0.791   9.918   0.988
 5448SOL    HW221192   0.704  10.040   1.053
 5449SOL     OW21193   0.307   9.373   0.618
 5449SOL    HW121194   0.296   9.467   0.651
 5449SOL    HW221195   0.302   9.310   0.695
 5450SOL     OW21196   1.622   9.677   0.374
 5450SOL    HW121197   1.624   9.601   0.438
 5450SOL    HW221198   1.574   9.754   0.414
 5451SOL     OW21199   1.540   9.584   0.125
 5451SOL    HW121200   1.479   9.509   0.148
 5451SOL    HW221201   1.562   9.636   0.208
 5452SOL     OW21202   0.319  10.120   0.949
 5452SOL    HW121203   0.412  10.156   0.954
 5452SOL    HW221204   0.313  10.035   1.001
 5453SOL     OW21205   0.339   9.819   1.006
 5453SOL    HW121206   0.287   9.736   0.989
 5453SOL    HW221207   0.416   9.824   0.942
 5454SOL     OW21208   1.138   9.690   1.678
 5454SOL    HW121209   1.093   9.753   1.742
 5454SOL    HW221210   1.231   9.721   1.661
 5455SOL     OW21211   1.160   9.517   1.477
 5455SOL    HW121212   1.160   9.581   1.554
 5455SOL    HW221213   1.188   9.565   1.394
 5456SOL     OW21214   0.189   9.830   1.722
 5456SOL    HW121215   0.248   9.790   1.652
 5456SOL    HW221216   0.131   9.901   1.681
 5457SOL     OW21217   0.815   9.882   0.325
 5457SOL    HW121218   0.822   9.793   0.279
 5457SOL    HW221219   0.721   9.916   0.317
 5458SOL     OW21220   1.657   9.914   1.206
 5458SOL    HW121221   1.619   9.845   1.268
 5458SOL    HW221222   1.739   9.878   1.162
 5459SOL     OW21223   0.671   9.774   1.269
 5459SOL    HW121224   0.637   9.685   1.239
 5459SOL    HW221225   0.697   9.828   1.189
 5460SOL     OW21226   0.903   9.396   0.133
 5460SOL    HW121227   0.954   9.397   0.047
 5460SOL    HW221228   0.959   9.354   0.204
 5461SOL     OW21229   1.726   9.445   0.523
 5461SOL    HW121230   1.799   9.428   0.456
 5461SOL    HW221231   1.695   9.358   0.561
 5462SOL     OW21232   1.841   9.485   0.963
 5462SOL    HW121233   1.880   9.400   0.927
 5462SOL    HW221234   1.743   9.487   0.944
 5463SOL     OW21235   0.263   9.636   0.720
 5463SOL    HW121236   0.184   9.687   0.686
 5463SOL    HW221237   0.254   9.621   0.818
 5464SOL     OW21238   1.014   9.546   0.971
 5464SOL    HW121239   1.006   9.510   0.878
 5464SOL    HW221240   1.012   9.470   1.036
 5465SOL     OW21241   1.709   9.695   1.381
 5465SOL    HW121242   1.782   9.764   1.385
 5465SOL    HW221243   1.737   9.620   1.322
 5466SOL     OW21244   0.672   9.513   1.489
 5466SOL    HW121245   0.762   9.497   1.449
 5466SOL    HW221246   0.680   9.518   1.588
 5467SOL     OW21247   0.075   9.655   0.033
 5467SOL    HW121248  -0.017   9.627   0.004
 5467SOL    HW221249   0.106   9.732  -0.023
 5468SOL     OW21250   0.072   9.476   0.318
 5468SOL    HW121251   0.055   9.559   0.264
 5468SOL    HW221252   0.162   9.439   0.296
 5469SOL     OW21253   0.716   9.875   1.708
 5469SOL    HW121254   0.735   9.940   1.782
 5469SOL    HW221255   0.776   9.795   1.717
 5470SOL     OW21256   1.225   9.635   0.449
 5470SOL    HW121257   1.290   9.561   0.438
 5470SOL    HW221258   1.245   9.685   0.533
 5471SOL     OW21259   1.777   9.652   1.642
 5471SOL    HW121260   1.760   9.683   1.548
 5471SOL    HW221261   1.693   9.615   1.680
 5472SOL     OW21262   1.083  10.294   0.087
 5472SOL    HW121263   1.060  10.347   0.005
 5472SOL    HW221264   1.164  10.238   0.068
 5473SOL     OW21265   1.824   9.502   1.227
 5473SOL    HW121266   1.820   9.412   1.271
 5473SOL    HW221267   1.827   9.491   1.128
 5474SOL     OW21268   0.428   9.734   0.520
 5474SOL    HW121269   0.458   9.662   0.458
 5474SOL    HW221270   0.389   9.694   0.603
 5475SOL     OW21271   0.317   9.857   1.280
 5475SOL    HW121272   0.355   9.798   1.352
 5475SOL    HW221273   0.357   9.831   1.192
 5476SOL     OW21274   1.424   9.524   1.112
 5476SOL    HW121275   1.476   9.459   1.167
 5476SOL    HW221276   1.375   9.587   1.173
 5477SOL     OW21277   1.352   9.362   0.168
 5477SOL    HW121278   1.387   9.321   0.084
 5477SOL    HW221279   1.262   9.324   0.188
 5478SOL     OW21280   1.300   9.763   0.691
 5478SOL    HW121281   1.241   9.843   0.695
 5478SOL    HW221282   1.315   9.728   0.784
 5479SOL     OW21283   1.593   9.531   0.882
 5479SOL    HW121284   1.509   9.530   0.936
 5479SOL    HW221285   1.595   9.614   0.826
 5480SOL     OW21286   0.225   9.585   2.858
 5480SOL    HW121287   0.260   9.568   2.950
 5480SOL    HW221288   0.137   9.540   2.846
 5481SOL     OW21289   0.019   9.678   2.509
 5481SOL    HW121290  -0.063   9.721   2.548
 5481SOL    HW221291  -0.009   9.605   2.446
 5482SOL     OW21292   1.755   9.917   2.093
 5482SOL    HW121293   1.743   9.904   1.994
 5482SOL    HW221294   1.725   9.836   2.142
 5483SOL     OW21295   0.438   9.702   3.361
 5483SOL    HW121296   0.520   9.646   3.370
 5483SOL    HW221297   0.357   9.644   3.365
 5484SOL     OW21298   1.603   9.757   2.599
 5484SOL    HW121299   1.529   9.803   2.549
 5484SOL    HW221300   1.654   9.825   2.652
 5485SOL     OW21301   1.594   9.424   3.342
 5485SOL    HW121302   1.576   9.491   3.270
 5485SOL    HW221303   1.591   9.470   3.431
 5486SOL     OW21304   0.122   9.953   2.425
 5486SOL    HW121305   0.077   9.865   2.442
 5486SOL    HW221306   0.121  10.007   2.509
 5487SOL     OW21307   0.809   9.314   2.364
 5487SOL    HW121308   0.849   9.405   2.355
 5487SOL    HW221309   0.709   9.322   2.370
 5488SOL     OW21310   0.317   9.561   3.663
 5488SOL    HW121311   0.388   9.632   3.669
 5488SOL    HW221312   0.229   9.600   3.691
 5489SOL     OW21313   1.281   9.655   2.806
 5489SOL    HW121314   1.195   9.605   2.793
 5489SOL    HW221315   1.343   9.601   2.862
 5490SOL     OW21316   0.807   9.915   3.327
 5490SOL    HW121317   0.760   9.912   3.416
 5490SOL    HW221318   0.756   9.860   3.261
 5491SOL     OW21319   0.991   9.720   3.104
 5491SOL    HW121320   0.914   9.754   3.158
 5491SOL    HW221321   0.957   9.669   3.025
 5492SOL     OW21322   1.041  10.011   2.291
 5492SOL    HW121323   1.067  10.007   2.387
 5492SOL    HW221324   0.956   9.960   2.277
 5493SOL     OW21325   0.076  10.121   2.651
 5493SOL    HW121326   0.175  10.109   2.660
 5493SOL    HW221327   0.052  10.216   2.672
 5494SOL     OW21328   1.719   9.895   3.693
 5494SOL    HW121329   1.693   9.984   3.657
 5494SOL    HW221330   1.717   9.827   3.620
 5495SOL     OW21331   0.550   9.506   2.747
 5495SOL    HW121332   0.545   9.501   2.847
 5495SOL    HW221333   0.552   9.602   2.718
 5496SOL     OW21334   1.458  10.045   2.590
 5496SOL    HW121335   1.453   9.980   2.665
 5496SOL    HW221336   1.538  10.104   2.603
 5497SOL     OW21337   1.400   9.417   2.288
 5497SOL    HW121338   1.376   9.380   2.198
 5497SOL    HW221339   1.499   9.433   2.292
 5498SOL     OW21340   1.547   9.532   3.591
 5498SOL    HW121341   1.542   9.569   3.683
 5498SOL    HW221342   1.475   9.463   3.579
 5499SOL     OW21343   0.781   9.574   3.611
 5499SOL    HW121344   0.848   9.513   3.654
 5499SOL    HW221345   0.708   9.593   3.676
 5500SOL     OW21346   0.922   9.813   2.761
 5500SOL    HW121347   0.897   9.804   2.665
 5500SOL    HW221348   0.970   9.731   2.792
 5501SOL     OW21349   0.539   9.374   2.374
 5501SOL    HW121350   0.458   9.375   2.432
 5501SOL    HW221351   0.542   9.457   2.319
 5502SOL     OW21352   0.297   9.345   2.033
 5502SOL    HW121353   0.346   9.429   2.012
 5502SOL    HW221354   0.359   9.280   2.078
 5503SOL     OW21355   1.076   9.993   3.326
 5503SOL    HW121356   0.996   9.932   3.329
 5503SOL    HW221357   1.157   9.940   3.302
 5504SOL     OW21358   1.032   9.859   1.878
 5504SOL    HW121359   0.991   9.941   1.839
 5504SOL    HW221360   1.096   9.885   1.951
 5505SOL     OW21361   0.561   9.532   3.009
 5505SOL    HW121362   0.599   9.448   3.046
 5505SOL    HW221363   0.473   9.551   3.053
 5506SOL     OW21364   0.866   9.764   2.504
 5506SOL    HW121365   0.834   9.836   2.442
 5506SOL    HW221366   0.890   9.683   2.451
 5507SOL     OW21367   1.017   9.349   2.615
 5507SOL    HW121368   0.945   9.354   2.546
 5507SOL    HW221369   0.993   9.280   2.684
 5508SOL     OW21370   1.466   9.900   2.854
 5508SOL    HW121371   1.436   9.805   2.861
 5508SOL    HW221372   1.539   9.916   2.920
 5509SOL     OW21373   0.527   9.566   2.190
 5509SOL    HW121374   0.554   9.507   2.115
 5509SOL    HW221375   0.527   9.661   2.159
 5510SOL     OW21376   0.566   9.847   2.727
 5510SOL    HW121377   0.578   9.913   2.653
 5510SOL    HW221378   0.612   9.881   2.810
 5511SOL     OW21379   1.582   9.949   2.334
 5511SOL    HW121380   1.551  10.010   2.407
 5511SOL    HW221381   1.632  10.001   2.265
 5512SOL     OW21382   1.013   9.415   3.632
 5512SOL    HW121383   1.019   9.500   3.580
 5512SOL    HW221384   1.045   9.339   3.575
 5513SOL     OW21385   0.504   9.360   3.602
 5513SOL    HW121386   0.462   9.303   3.532
 5513SOL    HW221387   0.438   9.429   3.634
 5514SOL     OW21388   1.209   9.835   2.137
 5514SOL    HW121389   1.222   9.751   2.191
 5514SOL    HW221390   1.180   9.909   2.197
 5515SOL     OW21391   0.732   9.944   2.926
 5515SOL    HW121392   0.791   9.918   2.850
 5515SOL    HW221393   0.704  10.040   2.915
 5516SOL     OW21394   0.307   9.373   2.480
 5516SOL    HW121395   0.296   9.467   2.513
 5516SOL    HW221396   0.302   9.310   2.557
 5517SOL     OW21397   1.622   9.677   2.236
 5517SOL    HW121398   1.624   9.601   2.300
 5517SOL    HW221399   1.574   9.754   2.276
 5518SOL     OW21400   1.540   9.584   1.987
 5518SOL    HW121401   1.479   9.509   2.010
 5518SOL    HW221402   1.562   9.636   2.070
 5519SOL     OW21403   0.319  10.120   2.811
 5519SOL    HW121404   0.412  10.156   2.816
 5519SOL    HW221405   0.313  10.035   2.863
 5520SOL     OW21406   0.339   9.819   2.868
 5520SOL    HW121407   0.287   9.736   2.851
 5520SOL    HW221408   0.416   9.824   2.804
 5521SOL     OW21409   0.189   9.830   3.584
 5521SOL    HW121410   0.248   9.790   3.514
 5521SOL    HW221411   0.131   9.901   3.543
 5522SOL     OW21412   0.815   9.882   2.187
 5522SOL    HW121413   0.822   9.793   2.141
 5522SOL    HW221414   0.721   9.916   2.179
 5523SOL     OW21415   1.657   9.914   3.068
 5523SOL    HW121416   1.619   9.845   3.130
 5523SOL    HW221417   1.739   9.878   3.024
 5524SOL     OW21418   0.671   9.774   3.131
 5524SOL    HW121419   0.637   9.685   3.101
 5524SOL    HW221420   0.697   9.828   3.051
 5525SOL     OW21421   1.726   9.445   2.385
 5525SOL    HW121422   1.799   9.428   2.318
 5525SOL    HW221423   1.695   9.358   2.423
 5526SOL     OW21424   1.841   9.485   2.825
 5526SOL    HW121425   1.880   9.400   2.789
 5526SOL    HW221426   1.743   9.487   2.806
 5527SOL     OW21427   0.263   9.636   2.582
 5527SOL    HW121428   0.184   9.687   2.548
 5527SOL    HW221429   0.254   9.621   2.680
 5528SOL     OW21430   1.014   9.546   2.833
 5528SOL    HW121431   1.006   9.510   2.740
 5528SOL    HW221432   1.012   9.470   2.898
 5529SOL     OW21433   1.709   9.695   3.243
 5529SOL    HW121434   1.782   9.764   3.247
 5529SOL    HW221435   1.737   9.620   3.184
 5530SOL     OW21436   0.672   9.513   3.351
 5530SOL    HW121437   0.762   9.497   3.311
 5530SOL    HW221438   0.680   9.518   3.450
 5531SOL     OW21439   0.075   9.655   1.895
 5531SOL    HW121440  -0.017   9.627   1.866
 5531SOL    HW221441   0.106   9.732   1.839
 5532SOL     OW21442   0.072   9.476   2.180
 5532SOL    HW121443   0.055   9.559   2.126
 5532SOL    HW221444   0.162   9.439   2.158
 5533SOL     OW21445   0.716   9.875   3.570
 5533SOL    HW121446   0.735   9.940   3.644
 5533SOL    HW221447   0.776   9.795   3.579
 5534SOL     OW21448   1.225   9.635   2.311
 5534SOL    HW121449   1.290   9.561   2.300
 5534SOL    HW221450   1.245   9.685   2.395
 5535SOL     OW21451   1.777   9.652   3.504
 5535SOL    HW121452   1.760   9.683   3.410
 5535SOL    HW221453   1.693   9.615   3.542
 5536SOL     OW21454   1.083  10.294   1.949
 5536SOL    HW121455   1.060  10.347   1.867
 5536SOL    HW221456   1.164  10.238   1.930
 5537SOL     OW21457   1.824   9.502   3.089
 5537SOL    HW121458   1.820   9.412   3.133
 5537SOL    HW221459   1.827   9.491   2.990
 5538SOL     OW21460   0.428   9.734   2.382
 5538SOL    HW121461   0.458   9.662   2.320
 5538SOL    HW221462   0.389   9.694   2.465
 5539SOL     OW21463   0.317   9.857   3.142
 5539SOL    HW121464   0.355   9.798   3.214
 5539SOL    HW221465   0.357   9.831   3.054
 5540SOL     OW21466   1.001   9.344   3.016
 5540SOL    HW121467   0.938   9.272   2.985
 5540SOL    HW221468   1.094   9.308   3.016
 5541SOL     OW21469   1.352   9.362   2.030
 5541SOL    HW121470   1.387   9.321   1.946
 5541SOL    HW221471   1.262   9.324   2.050
 5542SOL     OW21472   1.300   9.763   2.553
 5542SOL    HW121473   1.241   9.843   2.557
 5542SOL    HW221474   1.315   9.728   2.646
 5543SOL     OW21475   1.593   9.531   2.744
 5543SOL    HW121476   1.509   9.530   2.798
 5543SOL    HW221477   1.595   9.614   2.688
 5544SOL     OW21478   0.225   9.585   4.720
 5544SOL    HW121479   0.260   9.568   4.812
 5544SOL    HW221480   0.137   9.540   4.708
 5545SOL     OW21481   0.019   9.678   4.371
 5545SOL    HW121482  -0.063   9.721   4.410
 5545SOL    HW221483  -0.009   9.605   4.308
 5546SOL     OW21484   1.755   9.917   3.955
 5546SOL    HW121485   1.743   9.904   3.856
 5546SOL    HW221486   1.725   9.836   4.004
 5547SOL     OW21487   1.603   9.757   4.461
 5547SOL    HW121488   1.529   9.803   4.411
 5547SOL    HW221489   1.654   9.825   4.514
 5548SOL     OW21490   1.594   9.424   5.204
 5548SOL    HW121491   1.576   9.491   5.132
 5548SOL    HW221492   1.591   9.470   5.293
 5549SOL     OW21493   0.809   9.314   4.226
 5549SOL    HW121494   0.849   9.405   4.217
 5549SOL    HW221495   0.709   9.322   4.232
 5550SOL     OW21496   0.317   9.561   5.525
 5550SOL    HW121497   0.388   9.632   5.531
 5550SOL    HW221498   0.229   9.600   5.553
 5551SOL     OW21499   1.394   9.779   5.398
 5551SOL    HW121500   1.374   9.822   5.486
 5551SOL    HW221501   1.472   9.717   5.407
 5552SOL     OW21502   1.041  10.011   4.153
 5552SOL    HW121503   1.067  10.007   4.249
 5552SOL    HW221504   0.956   9.960   4.139
 5553SOL     OW21505   0.076  10.121   4.513
 5553SOL    HW121506   0.175  10.109   4.522
 5553SOL    HW221507   0.052  10.216   4.534
 5554SOL     OW21508   0.865   9.658   3.919
 5554SOL    HW121509   0.924   9.721   3.870
 5554SOL    HW221510   0.884   9.564   3.890
 5555SOL     OW21511   1.719   9.895   5.555
 5555SOL    HW121512   1.693   9.984   5.519
 5555SOL    HW221513   1.717   9.827   5.482
 5556SOL     OW21514   1.458  10.045   4.452
 5556SOL    HW121515   1.453   9.980   4.527
 5556SOL    HW221516   1.538  10.104   4.465
 5557SOL     OW21517   0.202   9.595   5.222
 5557SOL    HW121518   0.122   9.655   5.209
 5557SOL    HW221519   0.192   9.546   5.308
 5558SOL     OW21520   1.400   9.417   4.150
 5558SOL    HW121521   1.376   9.380   4.060
 5558SOL    HW221522   1.499   9.433   4.154
 5559SOL     OW21523   1.547   9.532   5.453
 5559SOL    HW121524   1.542   9.569   5.545
 5559SOL    HW221525   1.475   9.463   5.441
 5560SOL     OW21526   0.614   9.432   3.841
 5560SOL    HW121527   0.712   9.410   3.848
 5560SOL    HW221528   0.583   9.415   3.748
 5561SOL     OW21529   0.781   9.574   5.473
 5561SOL    HW121530   0.848   9.513   5.516
 5561SOL    HW221531   0.708   9.593   5.538
 5562SOL     OW21532   1.351   9.900   5.157
 5562SOL    HW121533   1.379   9.857   5.242
 5562SOL    HW221534   1.376   9.996   5.158
 5563SOL     OW21535   0.922   9.813   4.623
 5563SOL    HW121536   0.897   9.804   4.527
 5563SOL    HW221537   0.970   9.731   4.654
 5564SOL     OW21538   0.539   9.374   4.236
 5564SOL    HW121539   0.458   9.375   4.294
 5564SOL    HW221540   0.542   9.457   4.181
 5565SOL     OW21541   0.297   9.345   3.895
 5565SOL    HW121542   0.346   9.429   3.874
 5565SOL    HW221543   0.359   9.280   3.940
 5566SOL     OW21544   0.935   9.546   4.204
 5566SOL    HW121545   0.887   9.587   4.126
 5566SOL    HW221546   1.034   9.544   4.185
 5567SOL     OW21547   1.076   9.993   5.188
 5567SOL    HW121548   0.996   9.932   5.191
 5567SOL    HW221549   1.157   9.940   5.164
 5568SOL     OW21550   1.032   9.859   3.740
 5568SOL    HW121551   0.991   9.941   3.701
 5568SOL    HW221552   1.096   9.885   3.813
 5569SOL     OW21553   0.078   9.866   5.110
 5569SOL    HW121554   0.170   9.865   5.069
 5569SOL    HW221555   0.072   9.940   5.177
 5570SOL     OW21556   0.866   9.764   4.366
 5570SOL    HW121557   0.834   9.836   4.304
 5570SOL    HW221558   0.890   9.683   4.313
 5571SOL     OW21559   1.017   9.349   4.477
 5571SOL    HW121560   0.945   9.354   4.408
 5571SOL    HW221561   0.993   9.280   4.546
 5572SOL     OW21562   1.466   9.900   4.716
 5572SOL    HW121563   1.436   9.805   4.723
 5572SOL    HW221564   1.539   9.916   4.782
 5573SOL     OW21565   0.527   9.566   4.052
 5573SOL    HW121566   0.554   9.507   3.977
 5573SOL    HW221567   0.527   9.661   4.021
 5574SOL     OW21568   0.915   9.399   5.126
 5574SOL    HW121569   0.940   9.379   5.031
 5574SOL    HW221570   0.987   9.455   5.168
 5575SOL     OW21571   1.274   9.696   4.986
 5575SOL    HW121572   1.295   9.770   5.050
 5575SOL    HW221573   1.185   9.713   4.943
 5576SOL     OW21574   0.566   9.847   4.589
 5576SOL    HW121575   0.578   9.913   4.515
 5576SOL    HW221576   0.612   9.881   4.672
 5577SOL     OW21577   1.582   9.949   4.196
 5577SOL    HW121578   1.551  10.010   4.269
 5577SOL    HW221579   1.632  10.001   4.127
 5578SOL     OW21580   1.013   9.415   5.494
 5578SOL    HW121581   1.019   9.500   5.442
 5578SOL    HW221582   1.045   9.339   5.437
 5579SOL     OW21583   0.504   9.360   5.464
 5579SOL    HW121584   0.462   9.303   5.394
 5579SOL    HW221585   0.438   9.429   5.496
 5580SOL     OW21586   1.209   9.835   3.999
 5580SOL    HW121587   1.222   9.751   4.053
 5580SOL    HW221588   1.180   9.909   4.059
 5581SOL     OW21589   0.307   9.373   4.342
 5581SOL    HW121590   0.296   9.467   4.375
 5581SOL    HW221591   0.302   9.310   4.419
 5582SOL     OW21592   1.622   9.677   4.098
 5582SOL    HW121593   1.624   9.601   4.162
 5582SOL    HW221594   1.574   9.754   4.138
 5583SOL     OW21595   1.540   9.584   3.849
 5583SOL    HW121596   1.479   9.509   3.872
 5583SOL    HW221597   1.562   9.636   3.932
 5584SOL     OW21598   0.319  10.120   4.673
 5584SOL    HW121599   0.412  10.156   4.678
 5584SOL    HW221600   0.313  10.035   4.725
 5585SOL     OW21601   1.138   9.690   5.402
 5585SOL    HW121602   1.093   9.753   5.466
 5585SOL    HW221603   1.231   9.721   5.385
 5586SOL     OW21604   1.160   9.517   5.201
 5586SOL    HW121605   1.160   9.581   5.278
 5586SOL    HW221606   1.188   9.565   5.118
 5587SOL     OW21607   0.040   9.854   4.838
 5587SOL    HW121608   0.125   9.821   4.797
 5587SOL    HW221609   0.053   9.869   4.936
 5588SOL     OW21610   0.189   9.830   5.446
 5588SOL    HW121611   0.248   9.790   5.376
 5588SOL    HW221612   0.131   9.901   5.405
 5589SOL     OW21613   0.815   9.882   4.049
 5589SOL    HW121614   0.822   9.793   4.003
 5589SOL    HW221615   0.721   9.916   4.041
 5590SOL     OW21616   1.657   9.914   4.930
 5590SOL    HW121617   1.619   9.845   4.992
 5590SOL    HW221618   1.739   9.878   4.886
 5591SOL     OW21619   1.726   9.445   4.247
 5591SOL    HW121620   1.799   9.428   4.180
 5591SOL    HW221621   1.695   9.358   4.285
 5592SOL     OW21622   0.263   9.636   4.444
 5592SOL    HW121623   0.184   9.687   4.410
 5592SOL    HW221624   0.254   9.621   4.542
 5593SOL     OW21625   1.014   9.546   4.695
 5593SOL    HW121626   1.006   9.510   4.602
 5593SOL    HW221627   1.012   9.470   4.760
 5594SOL     OW21628   1.709   9.695   5.105
 5594SOL    HW121629   1.782   9.764   5.109
 5594SOL    HW221630   1.737   9.620   5.046
 5595SOL     OW21631   0.672   9.513   5.213
 5595SOL    HW121632   0.762   9.497   5.173
 5595SOL    HW221633   0.680   9.518   5.312
 5596SOL     OW21634   0.075   9.655   3.757
 5596SOL    HW121635  -0.017   9.627   3.728
 5596SOL    HW221636   0.106   9.732   3.701
 5597SOL     OW21637   0.072   9.476   4.042
 5597SOL    HW121638   0.055   9.559   3.988
 5597SOL    HW221639   0.162   9.439   4.020
 5598SOL     OW21640   0.716   9.875   5.432
 5598SOL    HW121641   0.735   9.940   5.506
 5598SOL    HW221642   0.776   9.795   5.441
 5599SOL     OW21643   1.225   9.635   4.173
 5599SOL    HW121644   1.290   9.561   4.162
 5599SOL    HW221645   1.245   9.685   4.257
 5600SOL     OW21646   1.777   9.652   5.366
 5600SOL    HW121647   1.760   9.683   5.272
 5600SOL    HW221648   1.693   9.615   5.404
 5601SOL     OW21649   1.083  10.294   3.811
 5601SOL    HW121650   1.060  10.347   3.729
 5601SOL    HW221651   1.164  10.238   3.792
 5602SOL     OW21652   0.428   9.734   4.244
 5602SOL    HW121653   0.458   9.662   4.182
 5602SOL    HW221654   0.389   9.694   4.327
 5603SOL     OW21655   1.001   9.344   4.878
 5603SOL    HW121656   0.938   9.272   4.847
 5603SOL    HW221657   1.094   9.308   4.878
 5604SOL     OW21658   1.352   9.362   3.892
 5604SOL    HW121659   1.387   9.321   3.808
 5604SOL    HW221660   1.262   9.324   3.912
 5605SOL     OW21661   1.300   9.763   4.415
 5605SOL    HW121662   1.241   9.843   4.419
 5605SOL    HW221663   1.315   9.728   4.508
 5606SOL     OW21664   0.225   9.585   6.582
 5606SOL    HW121665   0.260   9.568   6.674
 5606SOL    HW221666   0.137   9.540   6.570
 5607SOL     OW21667   0.019   9.678   6.233
 5607SOL    HW121668  -0.063   9.721   6.272
 5607SOL    HW221669  -0.009   9.605   6.170
 5608SOL     OW21670   1.755   9.917   5.817
 5608SOL    HW121671   1.743   9.904   5.718
 5608SOL    HW221672   1.725   9.836   5.866
 5609SOL     OW21673   0.438   9.702   7.085
 5609SOL    HW121674   0.520   9.646   7.094
 5609SOL    HW221675   0.357   9.644   7.089
 5610SOL     OW21676   1.603   9.757   6.323
 5610SOL    HW121677   1.529   9.803   6.273
 5610SOL    HW221678   1.654   9.825   6.376
 5611SOL     OW21679   1.594   9.424   7.066
 5611SOL    HW121680   1.576   9.491   6.994
 5611SOL    HW221681   1.591   9.470   7.155
 5612SOL     OW21682   0.122   9.953   6.149
 5612SOL    HW121683   0.077   9.865   6.166
 5612SOL    HW221684   0.121  10.007   6.233
 5613SOL     OW21685   0.809   9.314   6.088
 5613SOL    HW121686   0.849   9.405   6.079
 5613SOL    HW221687   0.709   9.322   6.094
 5614SOL     OW21688   0.317   9.561   7.387
 5614SOL    HW121689   0.388   9.632   7.393
 5614SOL    HW221690   0.229   9.600   7.415
 5615SOL     OW21691   1.281   9.655   6.530
 5615SOL    HW121692   1.195   9.605   6.517
 5615SOL    HW221693   1.343   9.601   6.586
 5616SOL     OW21694   0.807   9.915   7.051
 5616SOL    HW121695   0.760   9.912   7.140
 5616SOL    HW221696   0.756   9.860   6.985
 5617SOL     OW21697   1.394   9.779   7.260
 5617SOL    HW121698   1.374   9.822   7.348
 5617SOL    HW221699   1.472   9.717   7.269
 5618SOL     OW21700   0.991   9.720   6.828
 5618SOL    HW121701   0.914   9.754   6.882
 5618SOL    HW221702   0.957   9.669   6.749
 5619SOL     OW21703   1.041  10.011   6.015
 5619SOL    HW121704   1.067  10.007   6.111
 5619SOL    HW221705   0.956   9.960   6.001
 5620SOL     OW21706   0.076  10.121   6.375
 5620SOL    HW121707   0.175  10.109   6.384
 5620SOL    HW221708   0.052  10.216   6.396
 5621SOL     OW21709   0.865   9.658   5.781
 5621SOL    HW121710   0.924   9.721   5.732
 5621SOL    HW221711   0.884   9.564   5.752
 5622SOL     OW21712   1.719   9.895   7.417
 5622SOL    HW121713   1.693   9.984   7.381
 5622SOL    HW221714   1.717   9.827   7.344
 5623SOL     OW21715   0.550   9.506   6.471
 5623SOL    HW121716   0.545   9.501   6.571
 5623SOL    HW221717   0.552   9.602   6.442
 5624SOL     OW21718   1.458  10.045   6.314
 5624SOL    HW121719   1.453   9.980   6.389
 5624SOL    HW221720   1.538  10.104   6.327
 5625SOL     OW21721   0.202   9.595   7.084
 5625SOL    HW121722   0.122   9.655   7.071
 5625SOL    HW221723   0.192   9.546   7.170
 5626SOL     OW21724   1.400   9.417   6.012
 5626SOL    HW121725   1.376   9.380   5.922
 5626SOL    HW221726   1.499   9.433   6.016
 5627SOL     OW21727   1.547   9.532   7.315
 5627SOL    HW121728   1.542   9.569   7.407
 5627SOL    HW221729   1.475   9.463   7.303
 5628SOL     OW21730   0.614   9.432   5.703
 5628SOL    HW121731   0.712   9.410   5.710
 5628SOL    HW221732   0.583   9.415   5.610
 5629SOL     OW21733   0.781   9.574   7.335
 5629SOL    HW121734   0.848   9.513   7.378
 5629SOL    HW221735   0.708   9.593   7.400
 5630SOL     OW21736   0.922   9.813   6.485
 5630SOL    HW121737   0.897   9.804   6.389
 5630SOL    HW221738   0.970   9.731   6.516
 5631SOL     OW21739   0.539   9.374   6.098
 5631SOL    HW121740   0.458   9.375   6.156
 5631SOL    HW221741   0.542   9.457   6.043
 5632SOL     OW21742   0.297   9.345   5.757
 5632SOL    HW121743   0.346   9.429   5.736
 5632SOL    HW221744   0.359   9.280   5.802
 5633SOL     OW21745   0.935   9.546   6.066
 5633SOL    HW121746   0.887   9.587   5.988
 5633SOL    HW221747   1.034   9.544   6.047
 5634SOL     OW21748   1.076   9.993   7.050
 5634SOL    HW121749   0.996   9.932   7.053
 5634SOL    HW221750   1.157   9.940   7.026
 5635SOL     OW21751   1.032   9.859   5.602
 5635SOL    HW121752   0.991   9.941   5.563
 5635SOL    HW221753   1.096   9.885   5.675
 5636SOL     OW21754   0.078   9.866   6.972
 5636SOL    HW121755   0.170   9.865   6.931
 5636SOL    HW221756   0.072   9.940   7.039
 5637SOL     OW21757   0.561   9.532   6.733
 5637SOL    HW121758   0.599   9.448   6.770
 5637SOL    HW221759   0.473   9.551   6.777
 5638SOL     OW21760   0.866   9.764   6.228
 5638SOL    HW121761   0.834   9.836   6.166
 5638SOL    HW221762   0.890   9.683   6.175
 5639SOL     OW21763   1.017   9.349   6.339
 5639SOL    HW121764   0.945   9.354   6.270
 5639SOL    HW221765   0.993   9.280   6.408
 5640SOL     OW21766   1.466   9.900   6.578
 5640SOL    HW121767   1.436   9.805   6.585
 5640SOL    HW221768   1.539   9.916   6.644
 5641SOL     OW21769   0.527   9.566   5.914
 5641SOL    HW121770   0.554   9.507   5.839
 5641SOL    HW221771   0.527   9.661   5.883
 5642SOL     OW21772   0.915   9.399   6.988
 5642SOL    HW121773   0.940   9.379   6.893
 5642SOL    HW221774   0.987   9.455   7.030
 5643SOL     OW21775   0.566   9.847   6.451
 5643SOL    HW121776   0.578   9.913   6.377
 5643SOL    HW221777   0.612   9.881   6.534
 5644SOL     OW21778   1.582   9.949   6.058
 5644SOL    HW121779   1.551  10.010   6.131
 5644SOL    HW221780   1.632  10.001   5.989
 5645SOL     OW21781   1.013   9.415   7.356
 5645SOL    HW121782   1.019   9.500   7.304
 5645SOL    HW221783   1.045   9.339   7.299
 5646SOL     OW21784   0.504   9.360   7.326
 5646SOL    HW121785   0.462   9.303   7.256
 5646SOL    HW221786   0.438   9.429   7.358
 5647SOL     OW21787   1.209   9.835   5.861
 5647SOL    HW121788   1.222   9.751   5.915
 5647SOL    HW221789   1.180   9.909   5.921
 5648SOL     OW21790   0.307   9.523   6.817
 5648SOL    HW121791   0.284   9.560   6.907
 5648SOL    HW221792   0.277   9.428   6.811
 5649SOL     OW21793   0.732   9.944   6.650
 5649SOL    HW121794   0.791   9.918   6.574
 5649SOL    HW221795   0.704  10.040   6.639
 5650SOL     OW21796   0.307   9.373   6.204
 5650SOL    HW121797   0.296   9.467   6.237
 5650SOL    HW221798   0.302   9.310   6.281
 5651SOL     OW21799   1.622   9.677   5.960
 5651SOL    HW121800   1.624   9.601   6.024
 5651SOL    HW221801   1.574   9.754   6.000
 5652SOL     OW21802   1.540   9.584   5.711
 5652SOL    HW121803   1.479   9.509   5.734
 5652SOL    HW221804   1.562   9.636   5.794
 5653SOL     OW21805   0.319  10.120   6.535
 5653SOL    HW121806   0.412  10.156   6.540
 5653SOL    HW221807   0.313  10.035   6.587
 5654SOL     OW21808   0.339   9.819   6.592
 5654SOL    HW121809   0.287   9.736   6.575
 5654SOL    HW221810   0.416   9.824   6.528
 5655SOL     OW21811   1.138   9.690   7.264
 5655SOL    HW121812   1.093   9.753   7.328
 5655SOL    HW221813   1.231   9.721   7.247
 5656SOL     OW21814   1.160   9.517   7.063
 5656SOL    HW121815   1.160   9.581   7.140
 5656SOL    HW221816   1.188   9.565   6.980
 5657SOL     OW21817   0.040   9.854   6.700
 5657SOL    HW121818   0.125   9.821   6.659
 5657SOL    HW221819   0.053   9.869   6.798
 5658SOL     OW21820   0.189   9.830   7.308
 5658SOL    HW121821   0.248   9.790   7.238
 5658SOL    HW221822   0.131   9.901   7.267
 5659SOL     OW21823   0.815   9.882   5.911
 5659SOL    HW121824   0.822   9.793   5.865
 5659SOL    HW221825   0.721   9.916   5.903
 5660SOL     OW21826   0.671   9.774   6.855
 5660SOL    HW121827   0.637   9.685   6.825
 5660SOL    HW221828   0.697   9.828   6.775
 5661SOL     OW21829   1.726   9.445   6.109
 5661SOL    HW121830   1.799   9.428   6.042
 5661SOL    HW221831   1.695   9.358   6.147
 5662SOL     OW21832   1.841   9.485   6.549
 5662SOL    HW121833   1.880   9.400   6.513
 5662SOL    HW221834   1.743   9.487   6.530
 5663SOL     OW21835   0.263   9.636   6.306
 5663SOL    HW121836   0.184   9.687   6.272
 5663SOL    HW221837   0.254   9.621   6.404
 5664SOL     OW21838   1.014   9.546   6.557
 5664SOL    HW121839   1.006   9.510   6.464
 5664SOL    HW221840   1.012   9.470   6.622
 5665SOL     OW21841   1.709   9.695   6.967
 5665SOL    HW121842   1.782   9.764   6.971
 5665SOL    HW221843   1.737   9.620   6.908
 5666SOL     OW21844   0.672   9.513   7.075
 5666SOL    HW121845   0.762   9.497   7.035
 5666SOL    HW221846   0.680   9.518   7.174
 5667SOL     OW21847   0.075   9.655   5.619
 5667SOL    HW121848  -0.017   9.627   5.590
 5667SOL    HW221849   0.106   9.732   5.563
 5668SOL     OW21850   0.072   9.476   5.904
 5668SOL    HW121851   0.055   9.559   5.850
 5668SOL    HW221852   0.162   9.439   5.882
 5669SOL     OW21853   0.716   9.875   7.294
 5669SOL    HW121854   0.735   9.940   7.368
 5669SOL    HW221855   0.776   9.795   7.303
 5670SOL     OW21856   1.225   9.635   6.035
 5670SOL    HW121857   1.290   9.561   6.024
 5670SOL    HW221858   1.245   9.685   6.119
 5671SOL     OW21859   1.777   9.652   7.228
 5671SOL    HW121860   1.760   9.683   7.134
 5671SOL    HW221861   1.693   9.615   7.266
 5672SOL     OW21862   1.083  10.294   5.673
 5672SOL    HW121863   1.060  10.347   5.591
 5672SOL    HW221864   1.164  10.238   5.654
 5673SOL     OW21865   1.824   9.502   6.813
 5673SOL    HW121866   1.820   9.412   6.857
 5673SOL    HW221867   1.827   9.491   6.714
 5674SOL     OW21868   0.428   9.734   6.106
 5674SOL    HW121869   0.458   9.662   6.044
 5674SOL    HW221870   0.389   9.694   6.189
 5675SOL     OW21871   0.317   9.857   6.866
 5675SOL    HW121872   0.355   9.798   6.938
 5675SOL    HW221873   0.357   9.831   6.778
 5676SOL     OW21874   1.424   9.524   6.698
 5676SOL    HW121875   1.476   9.459   6.753
 5676SOL    HW221876   1.375   9.587   6.759
 5677SOL     OW21877   1.001   9.344   6.740
 5677SOL    HW121878   0.938   9.272   6.709
 5677SOL    HW221879   1.094   9.308   6.740
 5678SOL     OW21880   1.352   9.362   5.754
 5678SOL    HW121881   1.387   9.321   5.670
 5678SOL    HW221882   1.262   9.324   5.774
 5679SOL     OW21883   1.300   9.763   6.277
 5679SOL    HW121884   1.241   9.843   6.281
 5679SOL    HW221885   1.315   9.728   6.370
 5680SOL     OW21886   1.593   9.531   6.468
 5680SOL    HW121887   1.509   9.530   6.522
 5680SOL    HW221888   1.595   9.614   6.412
 5681SOL     OW21889   0.225   9.585   8.444
 5681SOL    HW121890   0.260   9.568   8.536
 5681SOL    HW221891   0.137   9.540   8.432
 5682SOL     OW21892   0.019   9.678   8.095
 5682SOL    HW121893  -0.063   9.721   8.134
 5682SOL    HW221894  -0.009   9.605   8.032
 5683SOL     OW21895   1.755   9.917   7.679
 5683SOL    HW121896   1.743   9.904   7.580
 5683SOL    HW221897   1.725   9.836   7.728
 5684SOL     OW21898   0.438   9.702   8.947
 5684SOL    HW121899   0.520   9.646   8.956
 5684SOL    HW221900   0.357   9.644   8.951
 5685SOL     OW21901   1.603   9.757   8.185
 5685SOL    HW121902   1.529   9.803   8.135
 5685SOL    HW221903   1.654   9.825   8.238
 5686SOL     OW21904   1.594   9.424   8.928
 5686SOL    HW121905   1.576   9.491   8.856
 5686SOL    HW221906   1.591   9.470   9.017
 5687SOL     OW21907   0.122   9.953   8.011
 5687SOL    HW121908   0.077   9.865   8.028
 5687SOL    HW221909   0.121  10.007   8.095
 5688SOL     OW21910   0.809   9.314   7.950
 5688SOL    HW121911   0.849   9.405   7.941
 5688SOL    HW221912   0.709   9.322   7.956
 5689SOL     OW21913   0.317   9.561   9.249
 5689SOL    HW121914   0.388   9.632   9.255
 5689SOL    HW221915   0.229   9.600   9.277
 5690SOL     OW21916   1.281   9.655   8.392
 5690SOL    HW121917   1.195   9.605   8.379
 5690SOL    HW221918   1.343   9.601   8.448
 5691SOL     OW21919   0.807   9.915   8.913
 5691SOL    HW121920   0.760   9.912   9.002
 5691SOL    HW221921   0.756   9.860   8.847
 5692SOL     OW21922   0.991   9.720   8.690
 5692SOL    HW121923   0.914   9.754   8.744
 5692SOL    HW221924   0.957   9.669   8.611
 5693SOL     OW21925   1.041  10.011   7.877
 5693SOL    HW121926   1.067  10.007   7.973
 5693SOL    HW221927   0.956   9.960   7.863
 5694SOL     OW21928   0.076  10.121   8.237
 5694SOL    HW121929   0.175  10.109   8.246
 5694SOL    HW221930   0.052  10.216   8.258
 5695SOL     OW21931   0.865   9.658   7.643
 5695SOL    HW121932   0.924   9.721   7.594
 5695SOL    HW221933   0.884   9.564   7.614
 5696SOL     OW21934   1.719   9.895   9.279
 5696SOL    HW121935   1.693   9.984   9.243
 5696SOL    HW221936   1.717   9.827   9.206
 5697SOL     OW21937   0.550   9.506   8.333
 5697SOL    HW121938   0.545   9.501   8.433
 5697SOL    HW221939   0.552   9.602   8.304
 5698SOL     OW21940   0.202   9.595   8.946
 5698SOL    HW121941   0.122   9.655   8.933
 5698SOL    HW221942   0.192   9.546   9.032
 5699SOL     OW21943   1.400   9.417   7.874
 5699SOL    HW121944   1.376   9.380   7.784
 5699SOL    HW221945   1.499   9.433   7.878
 5700SOL     OW21946   1.547   9.532   9.177
 5700SOL    HW121947   1.542   9.569   9.269
 5700SOL    HW221948   1.475   9.463   9.165
 5701SOL     OW21949   0.614   9.432   7.565
 5701SOL    HW121950   0.712   9.410   7.572
 5701SOL    HW221951   0.583   9.415   7.472
 5702SOL     OW21952   0.781   9.574   9.197
 5702SOL    HW121953   0.848   9.513   9.240
 5702SOL    HW221954   0.708   9.593   9.262
 5703SOL     OW21955   1.351   9.900   8.881
 5703SOL    HW121956   1.379   9.857   8.966
 5703SOL    HW221957   1.376   9.996   8.882
 5704SOL     OW21958   0.922   9.813   8.347
 5704SOL    HW121959   0.897   9.804   8.251
 5704SOL    HW221960   0.970   9.731   8.378
 5705SOL     OW21961   0.539   9.374   7.960
 5705SOL    HW121962   0.458   9.375   8.018
 5705SOL    HW221963   0.542   9.457   7.905
 5706SOL     OW21964   0.297   9.345   7.619
 5706SOL    HW121965   0.346   9.429   7.598
 5706SOL    HW221966   0.359   9.280   7.664
 5707SOL     OW21967   0.935   9.546   7.928
 5707SOL    HW121968   0.887   9.587   7.850
 5707SOL    HW221969   1.034   9.544   7.909
 5708SOL     OW21970   1.076   9.993   8.912
 5708SOL    HW121971   0.996   9.932   8.915
 5708SOL    HW221972   1.157   9.940   8.888
 5709SOL     OW21973   1.032   9.859   7.464
 5709SOL    HW121974   0.991   9.941   7.425
 5709SOL    HW221975   1.096   9.885   7.537
 5710SOL     OW21976   0.078   9.866   8.834
 5710SOL    HW121977   0.170   9.865   8.793
 5710SOL    HW221978   0.072   9.940   8.901
 5711SOL     OW21979   0.561   9.532   8.595
 5711SOL    HW121980   0.599   9.448   8.632
 5711SOL    HW221981   0.473   9.551   8.639
 5712SOL     OW21982   0.866   9.764   8.090
 5712SOL    HW121983   0.834   9.836   8.028
 5712SOL    HW221984   0.890   9.683   8.037
 5713SOL     OW21985   1.017   9.349   8.201
 5713SOL    HW121986   0.945   9.354   8.132
 5713SOL    HW221987   0.993   9.280   8.270
 5714SOL     OW21988   1.466   9.900   8.440
 5714SOL    HW121989   1.436   9.805   8.447
 5714SOL    HW221990   1.539   9.916   8.506
 5715SOL     OW21991   0.527   9.566   7.776
 5715SOL    HW121992   0.554   9.507   7.701
 5715SOL    HW221993   0.527   9.661   7.745
 5716SOL     OW21994   0.915   9.399   8.850
 5716SOL    HW121995   0.940   9.379   8.755
 5716SOL    HW221996   0.987   9.455   8.892
 5717SOL     OW21997   1.274   9.696   8.710
 5717SOL    HW121998   1.295   9.770   8.774
 5717SOL    HW221999   1.185   9.713   8.667
 5718SOL     OW22000   0.566   9.847   8.313
 5718SOL    HW122001   0.578   9.913   8.239
 5718SOL    HW222002   0.612   9.881   8.396
 5719SOL     OW22003   1.582   9.949   7.920
 5719SOL    HW122004   1.551  10.010   7.993
 5719SOL    HW222005   1.632  10.001   7.851
 5720SOL     OW22006   1.013   9.415   9.218
 5720SOL    HW122007   1.019   9.500   9.166
 5720SOL    HW222008   1.045   9.339   9.161
 5721SOL     OW22009   0.504   9.360   9.188
 5721SOL    HW122010   0.462   9.303   9.118
 5721SOL    HW222011   0.438   9.429   9.220
 5722SOL     OW22012   1.209   9.835   7.723
 5722SOL    HW122013   1.222   9.751   7.777
 5722SOL    HW222014   1.180   9.909   7.783
 5723SOL     OW22015   0.307   9.523   8.679
 5723SOL    HW122016   0.284   9.560   8.769
 5723SOL    HW222017   0.277   9.428   8.673
 5724SOL     OW22018   0.732   9.944   8.512
 5724SOL    HW122019   0.791   9.918   8.436
 5724SOL    HW222020   0.704  10.040   8.501
 5725SOL     OW22021   0.307   9.373   8.066
 5725SOL    HW122022   0.296   9.467   8.099
 5725SOL    HW222023   0.302   9.310   8.143
 5726SOL     OW22024   1.622   9.677   7.822
 5726SOL    HW122025   1.624   9.601   7.886
 5726SOL    HW222026   1.574   9.754   7.862
 5727SOL     OW22027   1.540   9.584   7.573
 5727SOL    HW122028   1.479   9.509   7.596
 5727SOL    HW222029   1.562   9.636   7.656
 5728SOL     OW22030   0.319  10.120   8.397
 5728SOL    HW122031   0.412  10.156   8.402
 5728SOL    HW222032   0.313  10.035   8.449
 5729SOL     OW22033   0.339   9.819   8.454
 5729SOL    HW122034   0.287   9.736   8.437
 5729SOL    HW222035   0.416   9.824   8.390
 5730SOL     OW22036   1.138   9.690   9.126
 5730SOL    HW122037   1.093   9.753   9.190
 5730SOL    HW222038   1.231   9.721   9.109
 5731SOL     OW22039   1.160   9.517   8.925
 5731SOL    HW122040   1.160   9.581   9.002
 5731SOL    HW222041   1.188   9.565   8.842
 5732SOL     OW22042   0.040   9.854   8.562
 5732SOL    HW122043   0.125   9.821   8.521
 5732SOL    HW222044   0.053   9.869   8.660
 5733SOL     OW22045   0.189   9.830   9.170
 5733SOL    HW122046   0.248   9.790   9.100
 5733SOL    HW222047   0.131   9.901   9.129
 5734SOL     OW22048   0.815   9.882   7.773
 5734SOL    HW122049   0.822   9.793   7.727
 5734SOL    HW222050   0.721   9.916   7.765
 5735SOL     OW22051   0.671   9.774   8.717
 5735SOL    HW122052   0.637   9.685   8.687
 5735SOL    HW222053   0.697   9.828   8.637
 5736SOL     OW22054   1.726   9.445   7.971
 5736SOL    HW122055   1.799   9.428   7.904
 5736SOL    HW222056   1.695   9.358   8.009
 5737SOL     OW22057   0.263   9.636   8.168
 5737SOL    HW122058   0.184   9.687   8.134
 5737SOL    HW222059   0.254   9.621   8.266
 5738SOL     OW22060   1.014   9.546   8.419
 5738SOL    HW122061   1.006   9.510   8.326
 5738SOL    HW222062   1.012   9.470   8.484
 5739SOL     OW22063   1.709   9.695   8.829
 5739SOL    HW122064   1.782   9.764   8.833
 5739SOL    HW222065   1.737   9.620   8.770
 5740SOL     OW22066   0.672   9.513   8.937
 5740SOL    HW122067   0.762   9.497   8.897
 5740SOL    HW222068   0.680   9.518   9.036
 5741SOL     OW22069   0.075   9.655   7.481
 5741SOL    HW122070  -0.017   9.627   7.452
 5741SOL    HW222071   0.106   9.732   7.425
 5742SOL     OW22072   0.072   9.476   7.766
 5742SOL    HW122073   0.055   9.559   7.712
 5742SOL    HW222074   0.162   9.439   7.744
 5743SOL     OW22075   0.716   9.875   9.156
 5743SOL    HW122076   0.735   9.940   9.230
 5743SOL    HW222077   0.776   9.795   9.165
 5744SOL     OW22078   1.225   9.635   7.897
 5744SOL    HW122079   1.290   9.561   7.886
 5744SOL    HW222080   1.245   9.685   7.981
 5745SOL     OW22081   1.777   9.652   9.090
 5745SOL    HW122082   1.760   9.683   8.996
 5745SOL    HW222083   1.693   9.615   9.128
 5746SOL     OW22084   1.083  10.294   7.535
 5746SOL    HW122085   1.060  10.347   7.453
 5746SOL    HW222086   1.164  10.238   7.516
 5747SOL     OW22087   0.428   9.734   7.968
 5747SOL    HW122088   0.458   9.662   7.906
 5747SOL    HW222089   0.389   9.694   8.051
 5748SOL     OW22090   0.317   9.857   8.728
 5748SOL    HW122091   0.355   9.798   8.800
 5748SOL    HW222092   0.357   9.831   8.640
 5749SOL     OW22093   1.424   9.524   8.560
 5749SOL    HW122094   1.476   9.459   8.615
 5749SOL    HW222095   1.375   9.587   8.621
 5750SOL     OW22096   1.001   9.344   8.602
 5750SOL    HW122097   0.938   9.272   8.571
 5750SOL    HW222098   1.094   9.308   8.602
 5751SOL     OW22099   1.352   9.362   7.616
 5751SOL    HW122100   1.387   9.321   7.532
 5751SOL    HW222101   1.262   9.324   7.636
 5752SOL     OW22102   1.300   9.763   8.139
 5752SOL    HW122103   1.241   9.843   8.143
 5752SOL    HW222104   1.315   9.728   8.232
 5753SOL     OW22105   1.593   9.531   8.330
 5753SOL    HW122106   1.509   9.530   8.384
 5753SOL    HW222107   1.595   9.614   8.274
 5754SOL     OW22108   1.755   9.917   9.541
 5754SOL    HW122109   1.743   9.904   9.442
 5754SOL    HW222110   1.725   9.836   9.590
 5755SOL     OW22111   0.122   9.953   9.873
 5755SOL    HW122112   0.077   9.865   9.890
 5755SOL    HW222113   0.121  10.007   9.957
 5756SOL     OW22114   0.809   9.314   9.812
 5756SOL    HW122115   0.849   9.405   9.803
 5756SOL    HW222116   0.709   9.322   9.818
 5757SOL     OW22117   1.041  10.011   9.739
 5757SOL    HW122118   1.067  10.007   9.835
 5757SOL    HW222119   0.956   9.960   9.725
 5758SOL     OW22120   0.076  10.121  10.099
 5758SOL    HW122121   0.175  10.109  10.108
 5758SOL    HW222122   0.052  10.216  10.120
 5759SOL     OW22123   0.865   9.658   9.505
 5759SOL    HW122124   0.924   9.721   9.456
 5759SOL    HW222125   0.884   9.564   9.476
 5760SOL     OW22126   1.400   9.417   9.736
 5760SOL    HW122127   1.376   9.380   9.646
 5760SOL    HW222128   1.499   9.433   9.740
 5761SOL     OW22129   0.614   9.432   9.427
 5761SOL    HW122130   0.712   9.410   9.434
 5761SOL    HW222131   0.583   9.415   9.334
 5762SOL     OW22132   0.539   9.374   9.822
 5762SOL    HW122133   0.458   9.375   9.880
 5762SOL    HW222134   0.542   9.457   9.767
 5763SOL     OW22135   0.297   9.345   9.481
 5763SOL    HW122136   0.346   9.429   9.460
 5763SOL    HW222137   0.359   9.280   9.526
 5764SOL     OW22138   0.935   9.546   9.790
 5764SOL    HW122139   0.887   9.587   9.712
 5764SOL    HW222140   1.034   9.544   9.771
 5765SOL     OW22141   1.032   9.859   9.326
 5765SOL    HW122142   0.991   9.941   9.287
 5765SOL    HW222143   1.096   9.885   9.399
 5766SOL     OW22144   0.866   9.764   9.952
 5766SOL    HW122145   0.834   9.836   9.890
 5766SOL    HW222146   0.890   9.683   9.899
 5767SOL     OW22147   0.527   9.566   9.638
 5767SOL    HW122148   0.554   9.507   9.563
 5767SOL    HW222149   0.527   9.661   9.607
 5768SOL     OW22150   1.582   9.949   9.782
 5768SOL    HW122151   1.551  10.010   9.855
 5768SOL    HW222152   1.632  10.001   9.713
 5769SOL     OW22153   1.209   9.835   9.585
 5769SOL    HW122154   1.222   9.751   9.639
 5769SOL    HW222155   1.180   9.909   9.645
 5770SOL     OW22156   0.307   9.373   9.928
 5770SOL    HW122157   0.296   9.467   9.961
 5770SOL    HW222158   0.302   9.310  10.005
 5771SOL     OW22159   1.622   9.677   9.684
 5771SOL    HW122160   1.624   9.601   9.748
 5771SOL    HW222161   1.574   9.754   9.724
 5772SOL     OW22162   1.540   9.584   9.435
 5772SOL    HW122163   1.479   9.509   9.458
 5772SOL    HW222164   1.562   9.636   9.518
 5773SOL     OW22165   0.339   9.819  10.316
 5773SOL    HW122166   0.287   9.736  10.299
 5773SOL    HW222167   0.416   9.824  10.252
 5774SOL     OW22168   0.815   9.882   9.635
 5774SOL    HW122169   0.822   9.793   9.589
 5774SOL    HW222170   0.721   9.916   9.627
 5775SOL     OW22171   1.726   9.445   9.833
 5775SOL    HW122172   1.799   9.428   9.766
 5775SOL    HW222173   1.695   9.358   9.871
 5776SOL     OW22174   0.075   9.655   9.343
 5776SOL    HW122175  -0.017   9.627   9.314
 5776SOL    HW222176   0.106   9.732   9.287
 5777SOL     OW22177   0.072   9.476   9.628
 5777SOL    HW122178   0.055   9.559   9.574
 5777SOL    HW222179   0.162   9.439   9.606
 5778SOL     OW22180   1.225   9.635   9.759
 5778SOL    HW122181   1.290   9.561   9.748
 5778SOL    HW222182   1.245   9.685   9.843
 5779SOL     OW22183   1.083  10.294   9.397
 5779SOL    HW122184   1.060  10.347   9.315
 5779SOL    HW222185   1.164  10.238   9.378
 5780SOL     OW22186   0.428   9.734   9.830
 5780SOL    HW122187   0.458   9.662   9.768
 5780SOL    HW222188   0.389   9.694   9.913
 5781SOL     OW22189   1.352   9.362   9.478
 5781SOL    HW122190   1.387   9.321   9.394
 5781SOL    HW222191   1.262   9.324   9.498
 5782SOL     OW22192   1.300   9.763  10.001
 5782SOL    HW122193   1.241   9.843  10.005
 5782SOL    HW222194   1.315   9.728  10.094
 5783SOL     OW22195   2.092   0.628   0.113
 5783SOL    HW122196   1.999   0.626   0.150
 5783SOL    HW222197   2.093   0.589   0.021
 5784SOL     OW22198   2.087   0.275   0.996
 5784SOL    HW122199   2.122   0.258   1.088
 5784SOL    HW222200   1.999   0.230   0.984
 5785SOL     OW22201   1.881   0.368   0.647
 5785SOL    HW122202   1.799   0.411   0.686
 5785SOL    HW222203   1.853   0.295   0.584
 5786SOL     OW22204   2.431   1.275   1.165
 5786SOL    HW122205   2.338   1.268   1.128
 5786SOL    HW222206   2.442   1.364   1.209
 5787SOL     OW22207   3.417   1.511   0.703
 5787SOL    HW122208   3.360   1.495   0.784
 5787SOL    HW222209   3.358   1.521   0.623
 5788SOL     OW22210   2.997   0.703   0.717
 5788SOL    HW122211   3.054   0.781   0.692
 5788SOL    HW222212   2.937   0.729   0.793
 5789SOL     OW22213   3.617   0.607   0.231
 5789SOL    HW122214   3.605   0.594   0.132
 5789SOL    HW222215   3.587   0.526   0.280
 5790SOL     OW22216   2.630   1.144   1.023
 5790SOL    HW122217   2.552   1.161   1.083
 5790SOL    HW222218   2.664   1.231   0.987
 5791SOL     OW22219   2.547   1.012   0.665
 5791SOL    HW122220   2.616   0.996   0.735
 5791SOL    HW222221   2.474   1.069   0.703
 5792SOL     OW22222   2.197   1.435   1.061
 5792SOL    HW122223   2.119   1.404   1.008
 5792SOL    HW222224   2.255   1.493   1.004
 5793SOL     OW22225   3.322   1.505   1.339
 5793SOL    HW122226   3.346   1.599   1.365
 5793SOL    HW222227   3.306   1.451   1.421
 5794SOL     OW22228   2.300   0.392   1.499
 5794SOL    HW122229   2.382   0.336   1.508
 5794SOL    HW222230   2.219   0.334   1.503
 5795SOL     OW22231   3.465   0.447   0.737
 5795SOL    HW122232   3.391   0.493   0.687
 5795SOL    HW222233   3.516   0.515   0.790
 5796SOL     OW22234   2.093   1.713   0.483
 5796SOL    HW122235   2.127   1.790   0.537
 5796SOL    HW222236   2.137   1.713   0.393
 5797SOL     OW22237   2.989   1.341   1.690
 5797SOL    HW122238   3.036   1.341   1.778
 5797SOL    HW222239   2.941   1.254   1.679
 5798SOL     OW22240   2.092   1.434   0.538
 5798SOL    HW122241   2.066   1.530   0.538
 5798SOL    HW222242   2.021   1.380   0.583
 5799SOL     OW22243   2.102   1.091   0.886
 5799SOL    HW122244   2.116   1.007   0.938
 5799SOL    HW222245   2.047   1.155   0.941
 5800SOL     OW22246   2.482   1.786   1.439
 5800SOL    HW122247   2.390   1.769   1.474
 5800SOL    HW222248   2.510   1.878   1.465
 5801SOL     OW22249   3.456   0.114   1.480
 5801SOL    HW122250   3.438   0.181   1.408
 5801SOL    HW222251   3.453   0.160   1.569
 5802SOL     OW22252   3.704   1.767   0.359
 5802SOL    HW122253   3.758   1.738   0.439
 5802SOL    HW222254   3.734   1.857   0.330
 5803SOL     OW22255   1.889   1.596   0.117
 5803SOL    HW122256   1.870   1.500   0.138
 5803SOL    HW222257   1.856   1.654   0.192
 5804SOL     OW22258   3.551   0.922   0.612
 5804SOL    HW122259   3.646   0.893   0.620
 5804SOL    HW222260   3.543   0.987   0.537
 5805SOL     OW22261   3.503   1.108   0.432
 5805SOL    HW122262   3.589   1.110   0.380
 5805SOL    HW222263   3.517   1.155   0.520
 5806SOL     OW22264   2.475   1.365   0.726
 5806SOL    HW122265   2.426   1.278   0.735
 5806SOL    HW222266   2.452   1.408   0.639
 5807SOL     OW22267   3.155   1.228   1.423
 5807SOL    HW122268   3.192   1.155   1.365
 5807SOL    HW222269   3.207   1.233   1.508
 5808SOL     OW22270   2.671   0.004   0.502
 5808SOL    HW122271   2.711   0.095   0.493
 5808SOL    HW222272   2.571   0.012   0.508
 5809SOL     OW22273   2.059   0.976   1.264
 5809SOL    HW122274   2.148   0.931   1.250
 5809SOL    HW222275   1.986   0.911   1.245
 5810SOL     OW22276   3.387   0.999   0.190
 5810SOL    HW122277   3.324   0.923   0.203
 5810SOL    HW222278   3.435   1.017   0.276
 5811SOL     OW22279   3.049   1.792   1.616
 5811SOL    HW122280   3.073   1.852   1.540
 5811SOL    HW222281   3.056   1.697   1.586
 5812SOL     OW22282   2.179   0.251   1.801
 5812SOL    HW122283   2.250   0.322   1.807
 5812SOL    HW222284   2.091   0.290   1.829
 5813SOL     OW22285   3.328   1.417   0.953
 5813SOL    HW122286   3.269   1.423   1.033
 5813SOL    HW222287   3.313   1.329   0.907
 5814SOL     OW22288   3.529   1.714   0.572
 5814SOL    HW122289   3.488   1.691   0.484
 5814SOL    HW222290   3.511   1.640   0.637
 5815SOL     OW22291   3.143   0.345   0.944
 5815SOL    HW122292   3.057   0.295   0.931
 5815SOL    HW222293   3.205   0.291   1.000
 5816SOL     OW22294   3.438   1.662   0.307
 5816SOL    HW122295   3.527   1.708   0.310
 5816SOL    HW222296   3.417   1.638   0.212
 5817SOL     OW22297   3.256   0.469   1.674
 5817SOL    HW122298   3.236   0.512   1.762
 5817SOL    HW222299   3.334   0.407   1.683
 5818SOL     OW22300   2.835   0.890   1.572
 5818SOL    HW122301   2.881   0.806   1.543
 5818SOL    HW222302   2.779   0.924   1.497
 5819SOL     OW22303   2.853   0.410   1.242
 5819SOL    HW122304   2.776   0.444   1.296
 5819SOL    HW222305   2.819   0.359   1.163
 5820SOL     OW22306   1.992   1.821   1.571
 5820SOL    HW122307   1.982   1.806   1.670
 5820SOL    HW222308   1.906   1.857   1.535
 5821SOL     OW22309   2.727   0.348   0.195
 5821SOL    HW122310   2.786   0.411   0.146
 5821SOL    HW222311   2.746   0.254   0.166
 5822SOL     OW22312   3.581   0.585   1.831
 5822SOL    HW122313   3.555   0.674   1.795
 5822SOL    HW222314   3.579   0.517   1.758
 5823SOL     OW22315   3.224   1.144   0.545
 5823SOL    HW122316   3.307   1.115   0.497
 5823SOL    HW222317   3.175   1.211   0.489
 5824SOL     OW22318   2.412   0.196   0.885
 5824SOL    HW122319   2.407   0.191   0.985
 5824SOL    HW222320   2.414   0.292   0.856
 5825SOL     OW22321   2.870   1.456   0.477
 5825SOL    HW122322   2.824   1.528   0.425
 5825SOL    HW222323   2.866   1.476   0.575
 5826SOL     OW22324   2.213   1.801   0.853
 5826SOL    HW122325   2.263   1.715   0.859
 5826SOL    HW222326   2.278   1.878   0.850
 5827SOL     OW22327   3.657   1.066   0.873
 5827SOL    HW122328   3.595   1.051   0.797
 5827SOL    HW222329   3.605   1.077   0.958
 5828SOL     OW22330   3.089   1.550   1.506
 5828SOL    HW122331   3.095   1.473   1.570
 5828SOL    HW222332   3.037   1.524   1.426
 5829SOL     OW22333   3.320   0.735   0.728
 5829SOL    HW122334   3.315   0.670   0.803
 5829SOL    HW222335   3.400   0.794   0.741
 5830SOL     OW22336   2.973   1.776   0.237
 5830SOL    HW122337   2.913   1.714   0.287
 5830SOL    HW222338   3.004   1.732   0.152
 5831SOL     OW22339   2.064   0.285   1.498
 5831SOL    HW122340   1.984   0.345   1.485
 5831SOL    HW222341   2.054   0.236   1.584
 5832SOL     OW22342   3.494   1.377   0.081
 5832SOL    HW122343   3.462   1.471   0.071
 5832SOL    HW222344   3.418   1.314   0.069
 5833SOL     OW22345   2.326   1.743   0.323
 5833SOL    HW122346   2.359   1.782   0.409
 5833SOL    HW222347   2.402   1.736   0.258
 5834SOL     OW22348   3.262   0.107   0.426
 5834SOL    HW122349   3.238   0.070   0.336
 5834SOL    HW222350   3.361   0.123   0.430
 5835SOL     OW22351   2.111   1.785   1.241
 5835SOL    HW122352   2.168   1.720   1.291
 5835SOL    HW222353   2.095   1.752   1.148
 5836SOL     OW22354   2.802   1.698   0.904
 5836SOL    HW122355   2.882   1.641   0.925
 5836SOL    HW222356   2.753   1.658   0.827
 5837SOL     OW22357   3.409   0.222   1.729
 5837SOL    HW122358   3.404   0.259   1.821
 5837SOL    HW222359   3.337   0.153   1.717
 5838SOL     OW22360   2.643   0.264   1.749
 5838SOL    HW122361   2.710   0.203   1.792
 5838SOL    HW222362   2.570   0.283   1.814
 5839SOL     OW22363   2.750   1.514   1.195
 5839SOL    HW122364   2.727   1.489   1.101
 5839SOL    HW222365   2.811   1.445   1.234
 5840SOL     OW22366   3.213   0.590   1.433
 5840SOL    HW122367   3.241   0.547   1.518
 5840SOL    HW222368   3.238   0.686   1.434
 5841SOL     OW22369   2.665   1.402   0.924
 5841SOL    HW122370   2.755   1.416   0.882
 5841SOL    HW222371   2.594   1.404   0.853
 5842SOL     OW22372   2.784   0.503   0.899
 5842SOL    HW122373   2.759   0.494   0.803
 5842SOL    HW222374   2.832   0.421   0.930
 5843SOL     OW22375   2.401   0.064   0.512
 5843SOL    HW122376   2.320   0.065   0.570
 5843SOL    HW222377   2.404   0.147   0.457
 5844SOL     OW22378   3.296   1.188   0.041
 5844SOL    HW122379   3.328   1.112   0.098
 5844SOL    HW222380   3.204   1.215   0.071
 5845SOL     OW22381   2.797   0.236   0.480
 5845SOL    HW122382   2.749   0.277   0.402
 5845SOL    HW222383   2.896   0.234   0.461
 5846SOL     OW22384   2.938   0.683   1.464
 5846SOL    HW122385   2.858   0.622   1.467
 5846SOL    HW222386   3.019   0.630   1.440
 5847SOL     OW22387   3.089   1.570   0.793
 5847SOL    HW122388   3.110   1.644   0.728
 5847SOL    HW222389   3.157   1.570   0.866
 5848SOL     OW22390   2.321   1.152   0.741
 5848SOL    HW122391   2.250   1.125   0.806
 5848SOL    HW222392   2.295   1.124   0.648
 5849SOL     OW22393   3.133   1.797   0.591
 5849SOL    HW122394   3.177   1.861   0.527
 5849SOL    HW222395   3.083   1.849   0.661
 5850SOL     OW22396   2.894   0.549   0.016
 5850SOL    HW122397   2.853   0.631  -0.023
 5850SOL    HW222398   2.958   0.575   0.089
 5851SOL     OW22399   2.423   0.222   1.147
 5851SOL    HW122400   2.461   0.138   1.184
 5851SOL    HW222401   2.335   0.241   1.191
 5852SOL     OW22402   2.728   0.454   0.642
 5852SOL    HW122403   2.696   0.526   0.580
 5852SOL    HW222404   2.752   0.373   0.589
 5853SOL     OW22405   2.879   0.039   0.753
 5853SOL    HW122406   2.807   0.044   0.684
 5853SOL    HW222407   2.855  -0.030   0.822
 5854SOL     OW22408   3.291   1.173   0.867
 5854SOL    HW122409   3.236   1.089   0.860
 5854SOL    HW222410   3.317   1.202   0.775
 5855SOL     OW22411   3.328   0.590   0.992
 5855SOL    HW122412   3.298   0.495   0.999
 5855SOL    HW222413   3.401   0.606   1.058
 5856SOL     OW22414   3.719   0.833   0.377
 5856SOL    HW122415   3.761   0.769   0.441
 5856SOL    HW222416   3.681   0.782   0.299
 5857SOL     OW22417   3.526   1.280   0.657
 5857SOL    HW122418   3.625   1.288   0.671
 5857SOL    HW222419   3.481   1.364   0.688
 5858SOL     OW22420   3.252   0.575   0.078
 5858SOL    HW122421   3.198   0.554   0.159
 5858SOL    HW222422   3.343   0.534   0.087
 5859SOL     OW22423   3.616   1.223   1.588
 5859SOL    HW122424   3.707   1.184   1.575
 5859SOL    HW222425   3.624   1.319   1.612
 5860SOL     OW22426   2.926   1.347   1.340
 5860SOL    HW122427   2.846   1.324   1.395
 5860SOL    HW222428   3.009   1.321   1.389
 5861SOL     OW22429   3.454   1.629   1.625
 5861SOL    HW122430   3.481   1.663   1.535
 5861SOL    HW222431   3.533   1.591   1.671
 5862SOL     OW22432   2.973   1.195   1.100
 5862SOL    HW122433   2.933   1.239   1.181
 5862SOL    HW222434   2.932   1.232   1.017
 5863SOL     OW22435   3.500   1.099   1.079
 5863SOL    HW122436   3.505   1.180   1.138
 5863SOL    HW222437   3.414   1.101   1.028
 5864SOL     OW22438   2.777   0.089   1.402
 5864SOL    HW122439   2.802   0.069   1.307
 5864SOL    HW222440   2.849   0.145   1.444
 5865SOL     OW22441   2.842   1.116   1.719
 5865SOL    HW122442   2.743   1.122   1.729
 5865SOL    HW222443   2.865   1.036   1.663
 5866SOL     OW22444   2.567   1.050   0.368
 5866SOL    HW122445   2.553   1.057   0.467
 5866SOL    HW222446   2.651   0.999   0.350
 5867SOL     OW22447   3.136   0.386   1.262
 5867SOL    HW122448   3.157   0.460   1.326
 5867SOL    HW222449   3.047   0.403   1.219
 5868SOL     OW22450   1.926   1.564   1.331
 5868SOL    HW122451   1.880   1.646   1.297
 5868SOL    HW222452   2.024   1.583   1.340
 5869SOL     OW22453   2.229   1.100   0.501
 5869SOL    HW122454   2.222   1.183   0.445
 5869SOL    HW222455   2.233   1.020   0.441
 5870SOL     OW22456   2.428   0.537   0.865
 5870SOL    HW122457   2.440   0.603   0.791
 5870SOL    HW222458   2.474   0.571   0.948
 5871SOL     OW22459   3.114   1.348   0.388
 5871SOL    HW122460   3.164   1.425   0.428
 5871SOL    HW222461   3.019   1.350   0.420
 5872SOL     OW22462   3.134   1.445   1.142
 5872SOL    HW122463   3.181   1.458   1.229
 5872SOL    HW222464   3.068   1.371   1.151
 5873SOL     OW22465   3.444   0.639   0.472
 5873SOL    HW122466   3.413   0.700   0.545
 5873SOL    HW222467   3.494   0.691   0.403
 5874SOL     OW22468   2.216   1.510   1.329
 5874SOL    HW122469   2.195   1.466   1.242
 5874SOL    HW222470   2.313   1.536   1.332
 5875SOL     OW22471   3.449   0.779   1.670
 5875SOL    HW122472   3.357   0.817   1.665
 5875SOL    HW222473   3.509   0.826   1.605
 5876SOL     OW22474   2.875   0.105   1.770
 5876SOL    HW122475   2.881   0.190   1.718
 5876SOL    HW222476   2.907   0.029   1.713
 5877SOL     OW22477   2.366   0.050   1.740
 5877SOL    HW122478   2.324  -0.007   1.670
 5877SOL    HW222479   2.300   0.119   1.772
 5878SOL     OW22480   2.435   0.870   1.029
 5878SOL    HW122481   2.479   0.959   1.020
 5878SOL    HW222482   2.372   0.870   1.106
 5879SOL     OW22483   3.222   0.862   1.045
 5879SOL    HW122484   3.147   0.862   0.979
 5879SOL    HW222485   3.259   0.770   1.054
 5880SOL     OW22486   3.071   0.525   0.275
 5880SOL    HW122487   3.084   0.441   0.329
 5880SOL    HW222488   3.042   0.599   0.335
 5881SOL     OW22489   2.169   0.213   1.231
 5881SOL    HW122490   2.146   0.250   1.321
 5881SOL    HW222491   2.139   0.118   1.225
 5882SOL     OW22492   1.899   1.310   1.282
 5882SOL    HW122493   1.952   1.261   1.350
 5882SOL    HW222494   1.921   1.408   1.287
 5883SOL     OW22495   2.594   0.634   1.064
 5883SOL    HW122496   2.653   0.608   0.988
 5883SOL    HW222497   2.566   0.730   1.053
 5884SOL     OW22498   3.590   0.935   1.854
 5884SOL    HW122499   3.544   0.928   1.765
 5884SOL    HW222500   3.528   0.979   1.920
 5885SOL     OW22501   2.169   0.063   0.618
 5885SOL    HW122502   2.158   0.157   0.651
 5885SOL    HW222503   2.164   0.000   0.695
 5886SOL     OW22504   3.484   0.367   0.374
 5886SOL    HW122505   3.486   0.291   0.438
 5886SOL    HW222506   3.436   0.444   0.414
 5887SOL     OW22507   2.885   0.766   0.966
 5887SOL    HW122508   2.900   0.787   1.062
 5887SOL    HW222509   2.855   0.671   0.957
 5888SOL     OW22510   2.842   1.573   1.700
 5888SOL    HW122511   2.822   1.617   1.612
 5888SOL    HW222512   2.881   1.482   1.684
 5889SOL     OW22513   3.402   0.274   0.125
 5889SOL    HW122514   3.341   0.199   0.148
 5889SOL    HW222515   3.424   0.326   0.208
 5890SOL     OW22516   3.165   0.838   0.042
 5890SOL    HW122517   3.199   0.745   0.057
 5890SOL    HW222518   3.183   0.865  -0.053
 5891SOL     OW22519   2.930   1.333   0.849
 5891SOL    HW122520   2.937   1.249   0.794
 5891SOL    HW222521   2.992   1.402   0.813
 5892SOL     OW22522   2.181   0.810   0.949
 5892SOL    HW122523   2.274   0.846   0.954
 5892SOL    HW222524   2.175   0.725   1.001
 5893SOL     OW22525   2.201   0.509   1.006
 5893SOL    HW122526   2.149   0.426   0.989
 5893SOL    HW222527   2.278   0.514   0.942
 5894SOL     OW22528   3.000   0.380   1.678
 5894SOL    HW122529   2.955   0.443   1.742
 5894SOL    HW222530   3.093   0.411   1.661
 5895SOL     OW22531   3.022   0.207   1.477
 5895SOL    HW122532   3.022   0.271   1.554
 5895SOL    HW222533   3.050   0.255   1.394
 5896SOL     OW22534   1.950   1.801   0.927
 5896SOL    HW122535   1.908   1.715   0.900
 5896SOL    HW222536   2.044   1.804   0.893
 5897SOL     OW22537   2.366   1.568   0.910
 5897SOL    HW122538   2.432   1.642   0.919
 5897SOL    HW222539   2.410   1.489   0.868
 5898SOL     OW22540   2.864   0.796   1.238
 5898SOL    HW122541   2.905   0.764   1.324
 5898SOL    HW222542   2.768   0.769   1.235
 5899SOL     OW22543   1.902   0.544   1.114
 5899SOL    HW122544   1.987   0.511   1.073
 5899SOL    HW222545   1.915   0.559   1.212
 5900SOL     OW22546   2.051   0.520   1.722
 5900SOL    HW122547   2.110   0.480   1.652
 5900SOL    HW222548   1.993   0.591   1.681
 5901SOL     OW22549   3.519   0.604   1.206
 5901SOL    HW122550   3.481   0.535   1.268
 5901SOL    HW222551   3.601   0.568   1.162
 5902SOL     OW22552   2.533   0.464   1.269
 5902SOL    HW122553   2.499   0.375   1.239
 5902SOL    HW222554   2.559   0.518   1.189
 5903SOL     OW22555   2.792   1.678   1.465
 5903SOL    HW122556   2.768   1.660   1.370
 5903SOL    HW222557   2.822   1.772   1.475
 5904SOL     OW22558   2.021   1.137   1.466
 5904SOL    HW122559   2.043   1.076   1.542
 5904SOL    HW222560   2.031   1.088   1.380
 5905SOL     OW22561   3.209   1.059   1.234
 5905SOL    HW122562   3.233   0.996   1.160
 5905SOL    HW222563   3.119   1.099   1.216
 5906SOL     OW22564   3.164   0.855   0.309
 5906SOL    HW122565   3.078   0.824   0.351
 5906SOL    HW222566   3.160   0.841   0.210
 5907SOL     OW22567   3.621   1.747   1.154
 5907SOL    HW122568   3.682   1.777   1.081
 5907SOL    HW222569   3.583   1.658   1.132
 5908SOL     OW22570   3.114   1.731   1.128
 5908SOL    HW122571   3.198   1.736   1.074
 5908SOL    HW222572   3.091   1.635   1.146
 5909SOL     OW22573   1.945   1.258   1.022
 5909SOL    HW122574   1.940   1.257   1.122
 5909SOL    HW222575   1.862   1.217   0.984
 5910SOL     OW22576   2.550   1.662   1.716
 5910SOL    HW122577   2.494   1.743   1.725
 5910SOL    HW222578   2.602   1.666   1.630
 5911SOL     OW22579   2.765   0.086   0.133
 5911SOL    HW122580   2.816   0.087   0.047
 5911SOL    HW222581   2.821   0.044   0.204
 5912SOL     OW22582   3.588   0.135   0.523
 5912SOL    HW122583   3.661   0.118   0.456
 5912SOL    HW222584   3.557   0.048   0.561
 5913SOL     OW22585   3.250   1.573   0.477
 5913SOL    HW122586   3.317   1.585   0.403
 5913SOL    HW222587   3.210   1.662   0.500
 5914SOL     OW22588   1.992   1.794   1.851
 5914SOL    HW122589   1.951   1.720   1.904
 5914SOL    HW222590   2.056   1.845   1.909
 5915SOL     OW22591   3.142   0.927   0.672
 5915SOL    HW122592   3.202   0.846   0.674
 5915SOL    HW222593   3.182   0.996   0.612
 5916SOL     OW22594   2.692   1.273   1.422
 5916SOL    HW122595   2.687   1.306   1.517
 5916SOL    HW222596   2.606   1.292   1.376
 5917SOL     OW22597   2.534   1.616   0.154
 5917SOL    HW122598   2.543   1.626   0.055
 5917SOL    HW222599   2.494   1.527   0.175
 5918SOL     OW22600   3.512   1.720   1.394
 5918SOL    HW122601   3.565   1.730   1.310
 5918SOL    HW222602   3.485   1.810   1.428
 5919SOL     OW22603   3.703   0.175   0.963
 5919SOL    HW122604   3.742   0.090   0.927
 5919SOL    HW222605   3.605   0.177   0.944
 5920SOL     OW22606   2.125   0.326   0.720
 5920SOL    HW122607   2.046   0.377   0.686
 5920SOL    HW222608   2.116   0.311   0.818
 5921SOL     OW22609   3.056   1.612   0.031
 5921SOL    HW122610   3.062   1.519   0.068
 5921SOL    HW222611   2.997   1.612  -0.049
 5922SOL     OW22612   2.684   1.002   1.372
 5922SOL    HW122613   2.724   1.001   1.280
 5922SOL    HW222614   2.694   1.094   1.412
 5923SOL     OW22615   2.778   0.910   0.291
 5923SOL    HW122616   2.841   0.948   0.223
 5923SOL    HW222617   2.818   0.827   0.330
 5924SOL     OW22618   3.366   1.607   0.044
 5924SOL    HW122619   3.274   1.644   0.051
 5924SOL    HW222620   3.404   1.627  -0.046
 5925SOL     OW22621   3.476   1.292   1.289
 5925SOL    HW122622   3.536   1.295   1.369
 5925SOL    HW222623   3.401   1.356   1.302
 5926SOL     OW22624   2.901   1.098   0.696
 5926SOL    HW122625   2.831   1.051   0.750
 5926SOL    HW222626   2.960   1.030   0.653
 5927SOL     OW22627   2.876   0.236   0.971
 5927SOL    HW122628   2.868   0.200   0.878
 5927SOL    HW222629   2.874   0.160   1.036
 5928SOL     OW22630   2.452   1.487   0.491
 5928SOL    HW122631   2.494   1.429   0.421
 5928SOL    HW222632   2.408   1.566   0.447
 5929SOL     OW22633   3.571   0.385   1.381
 5929SOL    HW122634   3.644   0.454   1.385
 5929SOL    HW222635   3.599   0.310   1.322
 5930SOL     OW22636   2.534   0.203   1.489
 5930SOL    HW122637   2.624   0.187   1.449
 5930SOL    HW222638   2.542   0.208   1.588
 5931SOL     OW22639   1.937   0.345   0.033
 5931SOL    HW122640   1.845   0.317   0.004
 5931SOL    HW222641   1.968   0.422  -0.023
 5932SOL     OW22642   3.302   0.856   1.398
 5932SOL    HW122643   3.245   0.908   1.335
 5932SOL    HW222644   3.398   0.868   1.374
 5933SOL     OW22645   3.045   1.335   0.119
 5933SOL    HW122646   2.946   1.324   0.121
 5933SOL    HW222647   3.079   1.350   0.212
 5934SOL     OW22648   3.355   1.767   0.959
 5934SOL    HW122649   3.388   1.831   0.890
 5934SOL    HW222650   3.421   1.761   1.034
 5935SOL     OW22651   3.536   0.883   1.254
 5935SOL    HW122652   3.509   0.794   1.217
 5935SOL    HW222653   3.537   0.951   1.181
 5936SOL     OW22654   3.087   0.325   0.449
 5936SOL    HW122655   3.152   0.251   0.438
 5936SOL    HW222656   3.107   0.375   0.533
 5937SOL     OW22657   2.456   0.745   0.652
 5937SOL    HW122658   2.506   0.830   0.633
 5937SOL    HW222659   2.368   0.747   0.604
 5938SOL     OW22660   3.639   0.342   1.642
 5938SOL    HW122661   3.622   0.373   1.548
 5938SOL    HW222662   3.555   0.305   1.680
 5939SOL     OW22663   3.592   0.934   1.517
 5939SOL    HW122664   3.630   1.025   1.532
 5939SOL    HW222665   3.584   0.917   1.418
 5940SOL     OW22666   2.721   1.374   0.016
 5940SOL    HW122667   2.675   1.389   0.104
 5940SOL    HW222668   2.765   1.459  -0.014
 5941SOL     OW22669   2.523   1.790   0.953
 5941SOL    HW122670   2.477   1.878   0.940
 5941SOL    HW222671   2.622   1.802   0.946
 5942SOL     OW22672   2.721   0.956   0.861
 5942SOL    HW122673   2.775   0.887   0.909
 5942SOL    HW222674   2.689   1.025   0.927
 5943SOL     OW22675   2.945   0.984   0.087
 5943SOL    HW122676   2.922   1.037   0.005
 5943SOL    HW222677   3.026   0.928   0.068
 5944SOL     OW22678   3.723   1.569   0.851
 5944SOL    HW122679   3.652   1.557   0.781
 5944SOL    HW222680   3.724   1.490   0.911
 5945SOL     OW22681   1.941   1.240   0.653
 5945SOL    HW122682   1.940   1.193   0.741
 5945SOL    HW222683   2.023   1.212   0.602
 5946SOL     OW22684   3.686   0.192   1.227
 5946SOL    HW122685   3.682   0.102   1.271
 5946SOL    HW222686   3.689   0.181   1.128
 5947SOL     OW22687   3.567   1.487   1.104
 5947SOL    HW122688   3.474   1.462   1.077
 5947SOL    HW222689   3.593   1.437   1.186
 5948SOL     OW22690   2.674   1.586   0.687
 5948SOL    HW122691   2.706   1.596   0.593
 5948SOL    HW222692   2.595   1.524   0.689
 5949SOL     OW22693   3.286   0.214   1.112
 5949SOL    HW122694   3.338   0.149   1.167
 5949SOL    HW222695   3.237   0.277   1.173
 5950SOL     OW22696   2.863   0.034   1.154
 5950SOL    HW122697   2.800  -0.038   1.123
 5950SOL    HW222698   2.956  -0.002   1.154
 5951SOL     OW22699   2.632   1.330   0.301
 5951SOL    HW122700   2.586   1.243   0.318
 5951SOL    HW222701   2.723   1.327   0.342
 5952SOL     OW22702   2.480   1.567   1.284
 5952SOL    HW122703   2.475   1.649   1.341
 5952SOL    HW222704   2.569   1.564   1.239
 5953SOL     OW22705   3.214   0.052   0.168
 5953SOL    HW122706   3.249   0.011   0.084
 5953SOL    HW222707   3.124   0.014   0.188
 5954SOL     OW22708   3.162   0.453   0.691
 5954SOL    HW122709   3.103   0.533   0.695
 5954SOL    HW222710   3.177   0.418   0.784
 5955SOL     OW22711   3.455   0.221   0.882
 5955SOL    HW122712   3.371   0.220   0.936
 5955SOL    HW222713   3.457   0.304   0.826
 5956SOL     OW22714   1.901   1.077   0.300
 5956SOL    HW122715   2.000   1.066   0.291
 5956SOL    HW222716   1.861   0.991   0.332
 5957SOL     OW22717   2.737   1.646   0.337
 5957SOL    HW122718   2.660   1.611   0.283
 5957SOL    HW222719   2.705   1.717   0.399
 5958SOL     OW22720   2.092   0.628   1.975
 5958SOL    HW122721   1.999   0.626   2.012
 5958SOL    HW222722   2.093   0.589   1.883
 5959SOL     OW22723   2.087   0.275   2.858
 5959SOL    HW122724   2.122   0.258   2.950
 5959SOL    HW222725   1.999   0.230   2.846
 5960SOL     OW22726   1.881   0.368   2.509
 5960SOL    HW122727   1.799   0.411   2.548
 5960SOL    HW222728   1.853   0.295   2.446
 5961SOL     OW22729   2.431   1.275   3.027
 5961SOL    HW122730   2.338   1.268   2.990
 5961SOL    HW222731   2.442   1.364   3.071
 5962SOL     OW22732   3.417   1.511   2.565
 5962SOL    HW122733   3.360   1.495   2.646
 5962SOL    HW222734   3.358   1.521   2.485
 5963SOL     OW22735   2.997   0.703   2.579
 5963SOL    HW122736   3.054   0.781   2.554
 5963SOL    HW222737   2.937   0.729   2.655
 5964SOL     OW22738   3.617   0.607   2.093
 5964SOL    HW122739   3.605   0.594   1.994
 5964SOL    HW222740   3.587   0.526   2.142
 5965SOL     OW22741   2.630   1.144   2.885
 5965SOL    HW122742   2.552   1.161   2.945
 5965SOL    HW222743   2.664   1.231   2.849
 5966SOL     OW22744   2.712   0.798   3.685
 5966SOL    HW122745   2.708   0.874   3.750
 5966SOL    HW222746   2.734   0.834   3.594
 5967SOL     OW22747   2.547   1.012   2.527
 5967SOL    HW122748   2.616   0.996   2.597
 5967SOL    HW222749   2.474   1.069   2.565
 5968SOL     OW22750   2.548   1.161   3.665
 5968SOL    HW122751   2.608   1.240   3.679
 5968SOL    HW222752   2.462   1.192   3.624
 5969SOL     OW22753   2.197   1.435   2.923
 5969SOL    HW122754   2.119   1.404   2.870
 5969SOL    HW222755   2.255   1.493   2.866
 5970SOL     OW22756   2.300   0.392   3.361
 5970SOL    HW122757   2.382   0.336   3.370
 5970SOL    HW222758   2.219   0.334   3.365
 5971SOL     OW22759   2.093   1.713   2.345
 5971SOL    HW122760   2.127   1.790   2.399
 5971SOL    HW222761   2.137   1.713   2.255
 5972SOL     OW22762   2.989   1.341   3.552
 5972SOL    HW122763   3.036   1.341   3.640
 5972SOL    HW222764   2.941   1.254   3.541
 5973SOL     OW22765   2.092   1.434   2.400
 5973SOL    HW122766   2.066   1.530   2.400
 5973SOL    HW222767   2.021   1.380   2.445
 5974SOL     OW22768   2.102   1.091   2.748
 5974SOL    HW122769   2.116   1.007   2.800
 5974SOL    HW222770   2.047   1.155   2.803
 5975SOL     OW22771   2.482   1.786   3.301
 5975SOL    HW122772   2.390   1.769   3.336
 5975SOL    HW222773   2.510   1.878   3.327
 5976SOL     OW22774   2.468   0.964   1.985
 5976SOL    HW122775   2.475   1.048   1.931
 5976SOL    HW222776   2.514   0.977   2.073
 5977SOL     OW22777   3.456   0.114   3.342
 5977SOL    HW122778   3.438   0.181   3.270
 5977SOL    HW222779   3.453   0.160   3.431
 5978SOL     OW22780   1.984   0.643   2.425
 5978SOL    HW122781   1.939   0.555   2.442
 5978SOL    HW222782   1.983   0.697   2.509
 5979SOL     OW22783   3.704   1.767   2.221
 5979SOL    HW122784   3.758   1.738   2.301
 5979SOL    HW222785   3.734   1.857   2.192
 5980SOL     OW22786   1.889   1.596   1.979
 5980SOL    HW122787   1.870   1.500   2.000
 5980SOL    HW222788   1.856   1.654   2.054
 5981SOL     OW22789   3.551   0.922   2.474
 5981SOL    HW122790   3.646   0.893   2.482
 5981SOL    HW222791   3.543   0.987   2.399
 5982SOL     OW22792   3.503   1.108   2.294
 5982SOL    HW122793   3.589   1.110   2.242
 5982SOL    HW222794   3.517   1.155   2.382
 5983SOL     OW22795   1.975   0.737   3.459
 5983SOL    HW122796   2.063   0.724   3.504
 5983SOL    HW222797   1.962   0.834   3.437
 5984SOL     OW22798   2.475   1.365   2.588
 5984SOL    HW122799   2.426   1.278   2.597
 5984SOL    HW222800   2.452   1.408   2.501
 5985SOL     OW22801   3.155   1.228   3.285
 5985SOL    HW122802   3.192   1.155   3.227
 5985SOL    HW222803   3.207   1.233   3.370
 5986SOL     OW22804   2.671   0.004   2.364
 5986SOL    HW122805   2.711   0.095   2.355
 5986SOL    HW222806   2.571   0.012   2.370
 5987SOL     OW22807   2.059   0.976   3.126
 5987SOL    HW122808   2.148   0.931   3.112
 5987SOL    HW222809   1.986   0.911   3.107
 5988SOL     OW22810   3.049   1.792   3.478
 5988SOL    HW122811   3.073   1.852   3.402
 5988SOL    HW222812   3.056   1.697   3.448
 5989SOL     OW22813   2.179   0.251   3.663
 5989SOL    HW122814   2.250   0.322   3.669
 5989SOL    HW222815   2.091   0.290   3.691
 5990SOL     OW22816   3.328   1.417   2.815
 5990SOL    HW122817   3.269   1.423   2.895
 5990SOL    HW222818   3.313   1.329   2.769
 5991SOL     OW22819   3.529   1.714   2.434
 5991SOL    HW122820   3.488   1.691   2.346
 5991SOL    HW222821   3.511   1.640   2.499
 5992SOL     OW22822   2.460   0.729   2.132
 5992SOL    HW122823   2.484   0.798   2.064
 5992SOL    HW222824   2.382   0.762   2.186
 5993SOL     OW22825   3.143   0.345   2.806
 5993SOL    HW122826   3.057   0.295   2.793
 5993SOL    HW222827   3.205   0.291   2.862
 5994SOL     OW22828   3.438   1.662   2.169
 5994SOL    HW122829   3.527   1.708   2.172
 5994SOL    HW222830   3.417   1.638   2.074
 5995SOL     OW22831   2.669   0.605   3.327
 5995SOL    HW122832   2.622   0.602   3.416
 5995SOL    HW222833   2.618   0.550   3.261
 5996SOL     OW22834   3.256   0.469   3.536
 5996SOL    HW122835   3.236   0.512   3.624
 5996SOL    HW222836   3.334   0.407   3.545
 5997SOL     OW22837   2.853   0.410   3.104
 5997SOL    HW122838   2.776   0.444   3.158
 5997SOL    HW222839   2.819   0.359   3.025
 5998SOL     OW22840   2.903   0.701   2.291
 5998SOL    HW122841   2.929   0.697   2.387
 5998SOL    HW222842   2.818   0.650   2.277
 5999SOL     OW22843   1.938   0.811   2.651
 5999SOL    HW122844   2.037   0.799   2.660
 5999SOL    HW222845   1.914   0.906   2.672
 6000SOL     OW22846   1.992   1.821   3.433
 6000SOL    HW122847   1.982   1.806   3.532
 6000SOL    HW222848   1.906   1.857   3.397
 6001SOL     OW22849   2.727   0.348   2.057
 6001SOL    HW122850   2.786   0.411   2.008
 6001SOL    HW222851   2.746   0.254   2.028
 6002SOL     OW22852   3.581   0.585   3.693
 6002SOL    HW122853   3.555   0.674   3.657
 6002SOL    HW222854   3.579   0.517   3.620
 6003SOL     OW22855   3.224   1.144   2.407
 6003SOL    HW122856   3.307   1.115   2.359
 6003SOL    HW222857   3.175   1.211   2.351
 6004SOL     OW22858   2.412   0.196   2.747
 6004SOL    HW122859   2.407   0.191   2.847
 6004SOL    HW222860   2.414   0.292   2.718
 6005SOL     OW22861   2.870   1.456   2.339
 6005SOL    HW122862   2.824   1.528   2.287
 6005SOL    HW222863   2.866   1.476   2.437
 6006SOL     OW22864   2.213   1.801   2.715
 6006SOL    HW122865   2.263   1.715   2.721
 6006SOL    HW222866   2.278   1.878   2.712
 6007SOL     OW22867   3.657   1.066   2.735
 6007SOL    HW122868   3.595   1.051   2.659
 6007SOL    HW222869   3.605   1.077   2.820
 6008SOL     OW22870   3.089   1.550   3.368
 6008SOL    HW122871   3.095   1.473   3.432
 6008SOL    HW222872   3.037   1.524   3.288
 6009SOL     OW22873   2.183   0.943   2.104
 6009SOL    HW122874   2.265   0.982   2.062
 6009SOL    HW222875   2.156   0.861   2.055
 6010SOL     OW22876   2.323   1.266   3.589
 6010SOL    HW122877   2.273   1.267   3.503
 6010SOL    HW222878   2.260   1.248   3.665
 6011SOL     OW22879   2.973   1.776   2.099
 6011SOL    HW122880   2.913   1.714   2.149
 6011SOL    HW222881   3.004   1.732   2.014
 6012SOL     OW22882   2.064   0.285   3.360
 6012SOL    HW122883   1.984   0.345   3.347
 6012SOL    HW222884   2.054   0.236   3.446
 6013SOL     OW22885   2.326   1.743   2.185
 6013SOL    HW122886   2.359   1.782   2.271
 6013SOL    HW222887   2.402   1.736   2.120
 6014SOL     OW22888   3.262   0.107   2.288
 6014SOL    HW122889   3.238   0.070   2.198
 6014SOL    HW222890   3.361   0.123   2.292
 6015SOL     OW22891   2.111   1.785   3.103
 6015SOL    HW122892   2.168   1.720   3.153
 6015SOL    HW222893   2.095   1.752   3.010
 6016SOL     OW22894   2.802   1.698   2.766
 6016SOL    HW122895   2.882   1.641   2.787
 6016SOL    HW222896   2.753   1.658   2.689
 6017SOL     OW22897   2.244   0.700   2.342
 6017SOL    HW122898   2.289   0.610   2.339
 6017SOL    HW222899   2.150   0.689   2.375
 6018SOL     OW22900   3.409   0.222   3.591
 6018SOL    HW122901   3.404   0.259   3.683
 6018SOL    HW222902   3.337   0.153   3.579
 6019SOL     OW22903   2.476   0.122   1.979
 6019SOL    HW122904   2.574   0.100   1.986
 6019SOL    HW222905   2.445   0.105   1.886
 6020SOL     OW22906   2.643   0.264   3.611
 6020SOL    HW122907   2.710   0.203   3.654
 6020SOL    HW222908   2.570   0.283   3.676
 6021SOL     OW22909   2.750   1.514   3.057
 6021SOL    HW122910   2.727   1.489   2.963
 6021SOL    HW222911   2.811   1.445   3.096
 6022SOL     OW22912   3.213   0.590   3.295
 6022SOL    HW122913   3.241   0.547   3.380
 6022SOL    HW222914   3.238   0.686   3.296
 6023SOL     OW22915   2.665   1.402   2.786
 6023SOL    HW122916   2.755   1.416   2.744
 6023SOL    HW222917   2.594   1.404   2.715
 6024SOL     OW22918   2.784   0.503   2.761
 6024SOL    HW122919   2.759   0.494   2.665
 6024SOL    HW222920   2.832   0.421   2.792
 6025SOL     OW22921   2.401   0.064   2.374
 6025SOL    HW122922   2.320   0.065   2.432
 6025SOL    HW222923   2.404   0.147   2.319
 6026SOL     OW22924   2.159   0.035   2.033
 6026SOL    HW122925   2.208   0.119   2.012
 6026SOL    HW222926   2.221  -0.030   2.078
 6027SOL     OW22927   2.797   0.236   2.342
 6027SOL    HW122928   2.749   0.277   2.264
 6027SOL    HW222929   2.896   0.234   2.323
 6028SOL     OW22930   2.938   0.683   3.326
 6028SOL    HW122931   2.858   0.622   3.329
 6028SOL    HW222932   3.019   0.630   3.302
 6029SOL     OW22933   3.089   1.570   2.655
 6029SOL    HW122934   3.110   1.644   2.590
 6029SOL    HW222935   3.157   1.570   2.728
 6030SOL     OW22936   2.321   1.152   2.603
 6030SOL    HW122937   2.250   1.125   2.668
 6030SOL    HW222938   2.295   1.124   2.510
 6031SOL     OW22939   3.133   1.797   2.453
 6031SOL    HW122940   3.177   1.861   2.389
 6031SOL    HW222941   3.083   1.849   2.523
 6032SOL     OW22942   2.894   0.549   1.878
 6032SOL    HW122943   2.853   0.631   1.839
 6032SOL    HW222944   2.958   0.575   1.951
 6033SOL     OW22945   1.940   0.556   3.248
 6033SOL    HW122946   2.032   0.555   3.207
 6033SOL    HW222947   1.934   0.630   3.315
 6034SOL     OW22948   2.423   0.222   3.009
 6034SOL    HW122949   2.461   0.138   3.046
 6034SOL    HW222950   2.335   0.241   3.053
 6035SOL     OW22951   2.728   0.454   2.504
 6035SOL    HW122952   2.696   0.526   2.442
 6035SOL    HW222953   2.752   0.373   2.451
 6036SOL     OW22954   2.879   0.039   2.615
 6036SOL    HW122955   2.807   0.044   2.546
 6036SOL    HW222956   2.855  -0.030   2.684
 6037SOL     OW22957   3.291   1.173   2.729
 6037SOL    HW122958   3.236   1.089   2.722
 6037SOL    HW222959   3.317   1.202   2.637
 6038SOL     OW22960   3.328   0.590   2.854
 6038SOL    HW122961   3.298   0.495   2.861
 6038SOL    HW222962   3.401   0.606   2.920
 6039SOL     OW22963   3.719   0.833   2.239
 6039SOL    HW122964   3.761   0.769   2.303
 6039SOL    HW222965   3.681   0.782   2.161
 6040SOL     OW22966   3.526   1.280   2.519
 6040SOL    HW122967   3.625   1.288   2.533
 6040SOL    HW222968   3.481   1.364   2.550
 6041SOL     OW22969   3.252   0.575   1.940
 6041SOL    HW122970   3.198   0.554   2.021
 6041SOL    HW222971   3.343   0.534   1.949
 6042SOL     OW22972   2.389   0.256   2.190
 6042SOL    HW122973   2.416   0.197   2.115
 6042SOL    HW222974   2.389   0.351   2.159
 6043SOL     OW22975   3.616   1.223   3.450
 6043SOL    HW122976   3.707   1.184   3.437
 6043SOL    HW222977   3.624   1.319   3.474
 6044SOL     OW22978   2.926   1.347   3.202
 6044SOL    HW122979   2.846   1.324   3.257
 6044SOL    HW222980   3.009   1.321   3.251
 6045SOL     OW22981   3.454   1.629   3.487
 6045SOL    HW122982   3.481   1.663   3.397
 6045SOL    HW222983   3.533   1.591   3.533
 6046SOL     OW22984   2.973   1.195   2.962
 6046SOL    HW122985   2.933   1.239   3.043
 6046SOL    HW222986   2.932   1.232   2.879
 6047SOL     OW22987   3.500   1.099   2.941
 6047SOL    HW122988   3.505   1.180   3.000
 6047SOL    HW222989   3.414   1.101   2.890
 6048SOL     OW22990   2.777   0.089   3.264
 6048SOL    HW122991   2.802   0.069   3.169
 6048SOL    HW222992   2.849   0.145   3.306
 6049SOL     OW22993   2.842   1.116   3.581
 6049SOL    HW122994   2.743   1.122   3.591
 6049SOL    HW222995   2.865   1.036   3.525
 6050SOL     OW22996   2.567   1.050   2.230
 6050SOL    HW122997   2.553   1.057   2.329
 6050SOL    HW222998   2.651   0.999   2.212
 6051SOL     OW22999   2.272   0.813   3.113
 6051SOL    HW123000   2.358   0.825   3.163
 6051SOL    HW223001   2.230   0.726   3.140
 6052SOL     OW23002   3.136   0.386   3.124
 6052SOL    HW123003   3.157   0.460   3.188
 6052SOL    HW223004   3.047   0.403   3.081
 6053SOL     OW23005   1.926   1.564   3.193
 6053SOL    HW123006   1.880   1.646   3.159
 6053SOL    HW223007   2.024   1.583   3.202
 6054SOL     OW23008   2.229   1.100   2.363
 6054SOL    HW123009   2.222   1.183   2.307
 6054SOL    HW223010   2.233   1.020   2.303
 6055SOL     OW23011   2.428   0.537   2.727
 6055SOL    HW123012   2.440   0.603   2.653
 6055SOL    HW223013   2.474   0.571   2.810
 6056SOL     OW23014   3.114   1.348   2.250
 6056SOL    HW123015   3.164   1.425   2.290
 6056SOL    HW223016   3.019   1.350   2.282
 6057SOL     OW23017   3.134   1.445   3.004
 6057SOL    HW123018   3.181   1.458   3.091
 6057SOL    HW223019   3.068   1.371   3.013
 6058SOL     OW23020   2.216   1.510   3.191
 6058SOL    HW123021   2.195   1.466   3.104
 6058SOL    HW223022   2.313   1.536   3.194
 6059SOL     OW23023   2.264   0.751   3.460
 6059SOL    HW123024   2.332   0.806   3.413
 6059SOL    HW223025   2.304   0.663   3.487
 6060SOL     OW23026   3.449   0.779   3.532
 6060SOL    HW123027   3.357   0.817   3.527
 6060SOL    HW223028   3.509   0.826   3.467
 6061SOL     OW23029   2.875   0.105   3.632
 6061SOL    HW123030   2.881   0.190   3.580
 6061SOL    HW223031   2.907   0.029   3.575
 6062SOL     OW23032   2.366   0.050   3.602
 6062SOL    HW123033   2.324  -0.007   3.532
 6062SOL    HW223034   2.300   0.119   3.634
 6063SOL     OW23035   2.435   0.870   2.891
 6063SOL    HW123036   2.479   0.959   2.882
 6063SOL    HW223037   2.372   0.870   2.968
 6064SOL     OW23038   3.222   0.862   2.907
 6064SOL    HW123039   3.147   0.862   2.841
 6064SOL    HW223040   3.259   0.770   2.916
 6065SOL     OW23041   2.169   0.213   3.093
 6065SOL    HW123042   2.146   0.250   3.183
 6065SOL    HW223043   2.139   0.118   3.087
 6066SOL     OW23044   1.899   1.310   3.144
 6066SOL    HW123045   1.952   1.261   3.212
 6066SOL    HW223046   1.921   1.408   3.149
 6067SOL     OW23047   2.594   0.634   2.926
 6067SOL    HW123048   2.653   0.608   2.850
 6067SOL    HW223049   2.566   0.730   2.915
 6068SOL     OW23050   3.590   0.935   3.716
 6068SOL    HW123051   3.544   0.928   3.627
 6068SOL    HW223052   3.528   0.979   3.782
 6069SOL     OW23053   2.169   0.063   2.480
 6069SOL    HW123054   2.158   0.157   2.513
 6069SOL    HW223055   2.164   0.000   2.557
 6070SOL     OW23056   2.885   0.766   2.828
 6070SOL    HW123057   2.900   0.787   2.924
 6070SOL    HW223058   2.855   0.671   2.819
 6071SOL     OW23059   2.842   1.573   3.562
 6071SOL    HW123060   2.822   1.617   3.474
 6071SOL    HW223061   2.881   1.482   3.546
 6072SOL     OW23062   3.721   1.518   3.467
 6072SOL    HW123063   3.735   1.545   3.372
 6072SOL    HW223064   3.804   1.540   3.520
 6073SOL     OW23065   2.212   0.898   3.666
 6073SOL    HW123066   2.288   0.942   3.714
 6073SOL    HW223067   2.247   0.851   3.584
 6074SOL     OW23068   3.402   0.274   1.987
 6074SOL    HW123069   3.341   0.199   2.010
 6074SOL    HW223070   3.424   0.326   2.070
 6075SOL     OW23071   3.165   0.838   1.904
 6075SOL    HW123072   3.199   0.745   1.919
 6075SOL    HW223073   3.183   0.865   1.809
 6076SOL     OW23074   2.930   1.333   2.711
 6076SOL    HW123075   2.937   1.249   2.656
 6076SOL    HW223076   2.992   1.402   2.675
 6077SOL     OW23077   2.181   0.810   2.811
 6077SOL    HW123078   2.274   0.846   2.816
 6077SOL    HW223079   2.175   0.725   2.863
 6078SOL     OW23080   2.201   0.509   2.868
 6078SOL    HW123081   2.149   0.426   2.851
 6078SOL    HW223082   2.278   0.514   2.804
 6079SOL     OW23083   3.000   0.380   3.540
 6079SOL    HW123084   2.955   0.443   3.604
 6079SOL    HW223085   3.093   0.411   3.523
 6080SOL     OW23086   3.022   0.207   3.339
 6080SOL    HW123087   3.022   0.271   3.416
 6080SOL    HW223088   3.050   0.255   3.256
 6081SOL     OW23089   1.870   1.326   2.062
 6081SOL    HW123090   1.777   1.347   2.031
 6081SOL    HW223091   1.880   1.227   2.075
 6082SOL     OW23092   1.950   1.801   2.789
 6082SOL    HW123093   1.908   1.715   2.762
 6082SOL    HW223094   2.044   1.804   2.755
 6083SOL     OW23095   2.366   1.568   2.772
 6083SOL    HW123096   2.432   1.642   2.781
 6083SOL    HW223097   2.410   1.489   2.730
 6084SOL     OW23098   2.864   0.796   3.100
 6084SOL    HW123099   2.905   0.764   3.186
 6084SOL    HW223100   2.768   0.769   3.097
 6085SOL     OW23101   1.902   0.544   2.976
 6085SOL    HW123102   1.987   0.511   2.935
 6085SOL    HW223103   1.915   0.559   3.074
 6086SOL     OW23104   2.051   0.520   3.584
 6086SOL    HW123105   2.110   0.480   3.514
 6086SOL    HW223106   1.993   0.591   3.543
 6087SOL     OW23107   3.231   0.950   3.522
 6087SOL    HW123108   3.270   1.039   3.542
 6087SOL    HW223109   3.241   0.930   3.425
 6088SOL     OW23110   2.677   0.572   2.187
 6088SOL    HW123111   2.684   0.483   2.141
 6088SOL    HW223112   2.583   0.606   2.179
 6089SOL     OW23113   3.519   0.604   3.068
 6089SOL    HW123114   3.481   0.535   3.130
 6089SOL    HW223115   3.601   0.568   3.024
 6090SOL     OW23116   2.114   1.564   3.606
 6090SOL    HW123117   2.084   1.621   3.682
 6090SOL    HW223118   2.107   1.467   3.632
 6091SOL     OW23119   2.533   0.464   3.131
 6091SOL    HW123120   2.499   0.375   3.101
 6091SOL    HW223121   2.559   0.518   3.051
 6092SOL     OW23122   2.792   1.678   3.327
 6092SOL    HW123123   2.768   1.660   3.232
 6092SOL    HW223124   2.822   1.772   3.337
 6093SOL     OW23125   2.335   0.500   2.053
 6093SOL    HW123126   2.396   0.580   2.057
 6093SOL    HW223127   2.240   0.531   2.060
 6094SOL     OW23128   2.021   1.137   3.328
 6094SOL    HW123129   2.043   1.076   3.404
 6094SOL    HW223130   2.031   1.088   3.242
 6095SOL     OW23131   3.209   1.059   3.096
 6095SOL    HW123132   3.233   0.996   3.022
 6095SOL    HW223133   3.119   1.099   3.078
 6096SOL     OW23134   3.164   0.855   2.171
 6096SOL    HW123135   3.078   0.824   2.213
 6096SOL    HW223136   3.160   0.841   2.072
 6097SOL     OW23137   3.114   1.731   2.990
 6097SOL    HW123138   3.198   1.736   2.936
 6097SOL    HW223139   3.091   1.635   3.008
 6098SOL     OW23140   1.945   1.258   2.884
 6098SOL    HW123141   1.940   1.257   2.984
 6098SOL    HW223142   1.862   1.217   2.846
 6099SOL     OW23143   2.550   1.662   3.578
 6099SOL    HW123144   2.494   1.743   3.587
 6099SOL    HW223145   2.602   1.666   3.492
 6100SOL     OW23146   3.588   0.135   2.385
 6100SOL    HW123147   3.661   0.118   2.318
 6100SOL    HW223148   3.557   0.048   2.423
 6101SOL     OW23149   3.250   1.573   2.339
 6101SOL    HW123150   3.317   1.585   2.265
 6101SOL    HW223151   3.210   1.662   2.362
 6102SOL     OW23152   1.992   1.794   3.713
 6102SOL    HW123153   1.951   1.720   3.766
 6102SOL    HW223154   2.056   1.845   3.771
 6103SOL     OW23155   3.142   0.927   2.534
 6103SOL    HW123156   3.202   0.846   2.536
 6103SOL    HW223157   3.182   0.996   2.474
 6104SOL     OW23158   2.692   1.273   3.284
 6104SOL    HW123159   2.687   1.306   3.379
 6104SOL    HW223160   2.606   1.292   3.238
 6105SOL     OW23161   2.534   1.616   2.016
 6105SOL    HW123162   2.543   1.626   1.917
 6105SOL    HW223163   2.494   1.527   2.037
 6106SOL     OW23164   3.703   0.175   2.825
 6106SOL    HW123165   3.742   0.090   2.789
 6106SOL    HW223166   3.605   0.177   2.806
 6107SOL     OW23167   2.125   0.326   2.582
 6107SOL    HW123168   2.046   0.377   2.548
 6107SOL    HW223169   2.116   0.311   2.680
 6108SOL     OW23170   3.056   1.612   1.893
 6108SOL    HW123171   3.062   1.519   1.930
 6108SOL    HW223172   2.997   1.612   1.813
 6109SOL     OW23173   2.684   1.002   3.234
 6109SOL    HW123174   2.724   1.001   3.142
 6109SOL    HW223175   2.694   1.094   3.274
 6110SOL     OW23176   2.778   0.910   2.153
 6110SOL    HW123177   2.841   0.948   2.085
 6110SOL    HW223178   2.818   0.827   2.192
 6111SOL     OW23179   2.234   1.288   3.352
 6111SOL    HW123180   2.221   1.381   3.318
 6111SOL    HW223181   2.150   1.236   3.339
 6112SOL     OW23182   3.476   1.292   3.151
 6112SOL    HW123183   3.536   1.295   3.231
 6112SOL    HW223184   3.401   1.356   3.164
 6113SOL     OW23185   2.901   1.098   2.558
 6113SOL    HW123186   2.831   1.051   2.612
 6113SOL    HW223187   2.960   1.030   2.515
 6114SOL     OW23188   2.876   0.236   2.833
 6114SOL    HW123189   2.868   0.200   2.740
 6114SOL    HW223190   2.874   0.160   2.898
 6115SOL     OW23191   2.452   1.487   2.353
 6115SOL    HW123192   2.494   1.429   2.283
 6115SOL    HW223193   2.408   1.566   2.309
 6116SOL     OW23194   3.571   0.385   3.243
 6116SOL    HW123195   3.644   0.454   3.247
 6116SOL    HW223196   3.599   0.310   3.184
 6117SOL     OW23197   2.117   1.348   2.152
 6117SOL    HW123198   2.021   1.349   2.125
 6117SOL    HW223199   2.129   1.401   2.236
 6118SOL     OW23200   1.967   1.013   3.588
 6118SOL    HW123201   1.890   0.980   3.642
 6118SOL    HW223202   2.052   0.983   3.630
 6119SOL     OW23203   2.534   0.203   3.351
 6119SOL    HW123204   2.624   0.187   3.311
 6119SOL    HW223205   2.542   0.208   3.450
 6120SOL     OW23206   1.937   0.345   1.895
 6120SOL    HW123207   1.845   0.317   1.866
 6120SOL    HW223208   1.968   0.422   1.839
 6121SOL     OW23209   3.302   0.856   3.260
 6121SOL    HW123210   3.245   0.908   3.197
 6121SOL    HW223211   3.398   0.868   3.236
 6122SOL     OW23212   1.934   0.166   2.180
 6122SOL    HW123213   1.917   0.249   2.126
 6122SOL    HW223214   2.024   0.129   2.158
 6123SOL     OW23215   3.045   1.335   1.981
 6123SOL    HW123216   2.946   1.324   1.983
 6123SOL    HW223217   3.079   1.350   2.074
 6124SOL     OW23218   2.475   0.842   3.293
 6124SOL    HW123219   2.531   0.923   3.276
 6124SOL    HW223220   2.534   0.762   3.296
 6125SOL     OW23221   2.578   0.565   3.570
 6125SOL    HW123222   2.597   0.630   3.644
 6125SOL    HW223223   2.638   0.485   3.579
 6126SOL     OW23224   3.312   1.220   3.495
 6126SOL    HW123225   3.303   1.210   3.594
 6126SOL    HW223226   3.408   1.213   3.469
 6127SOL     OW23227   2.252   1.741   3.422
 6127SOL    HW123228   2.161   1.782   3.420
 6127SOL    HW223229   2.245   1.647   3.454
 6128SOL     OW23230   3.536   0.883   3.116
 6128SOL    HW123231   3.509   0.794   3.079
 6128SOL    HW223232   3.537   0.951   3.043
 6129SOL     OW23233   2.456   0.745   2.514
 6129SOL    HW123234   2.506   0.830   2.495
 6129SOL    HW223235   2.368   0.747   2.466
 6130SOL     OW23236   3.639   0.342   3.504
 6130SOL    HW123237   3.622   0.373   3.410
 6130SOL    HW223238   3.555   0.305   3.542
 6131SOL     OW23239   3.592   0.934   3.379
 6131SOL    HW123240   3.630   1.025   3.394
 6131SOL    HW223241   3.584   0.917   3.280
 6132SOL     OW23242   2.721   1.374   1.878
 6132SOL    HW123243   2.675   1.389   1.966
 6132SOL    HW223244   2.765   1.459   1.848
 6133SOL     OW23245   2.523   1.790   2.815
 6133SOL    HW123246   2.477   1.878   2.802
 6133SOL    HW223247   2.622   1.802   2.808
 6134SOL     OW23248   2.945   0.984   1.949
 6134SOL    HW123249   2.922   1.037   1.867
 6134SOL    HW223250   3.026   0.928   1.930
 6135SOL     OW23251   3.723   1.569   2.713
 6135SOL    HW123252   3.652   1.557   2.643
 6135SOL    HW223253   3.724   1.490   2.773
 6136SOL     OW23254   2.083   1.314   3.706
 6136SOL    HW123255   2.018   1.241   3.685
 6136SOL    HW223256   2.087   1.328   3.804
 6137SOL     OW23257   1.941   1.240   2.515
 6137SOL    HW123258   1.940   1.193   2.603
 6137SOL    HW223259   2.023   1.212   2.464
 6138SOL     OW23260   2.534   1.391   3.486
 6138SOL    HW123261   2.456   1.341   3.524
 6138SOL    HW223262   2.531   1.486   3.517
 6139SOL     OW23263   3.686   0.192   3.089
 6139SOL    HW123264   3.682   0.102   3.133
 6139SOL    HW223265   3.689   0.181   2.990
 6140SOL     OW23266   2.290   0.424   2.382
 6140SOL    HW123267   2.320   0.352   2.320
 6140SOL    HW223268   2.251   0.384   2.465
 6141SOL     OW23269   2.179   0.547   3.142
 6141SOL    HW123270   2.217   0.488   3.214
 6141SOL    HW223271   2.219   0.521   3.054
 6142SOL     OW23272   2.674   1.586   2.549
 6142SOL    HW123273   2.706   1.596   2.455
 6142SOL    HW223274   2.595   1.524   2.551
 6143SOL     OW23275   3.286   0.214   2.974
 6143SOL    HW123276   3.338   0.149   3.029
 6143SOL    HW223277   3.237   0.277   3.035
 6144SOL     OW23278   2.863   0.034   3.016
 6144SOL    HW123279   2.800  -0.038   2.985
 6144SOL    HW223280   2.956  -0.002   3.016
 6145SOL     OW23281   2.632   1.330   2.163
 6145SOL    HW123282   2.586   1.243   2.180
 6145SOL    HW223283   2.723   1.327   2.204
 6146SOL     OW23284   2.480   1.567   3.146
 6146SOL    HW123285   2.475   1.649   3.203
 6146SOL    HW223286   2.569   1.564   3.101
 6147SOL     OW23287   3.214   0.052   2.030
 6147SOL    HW123288   3.249   0.011   1.946
 6147SOL    HW223289   3.124   0.014   2.050
 6148SOL     OW23290   3.455   0.221   2.744
 6148SOL    HW123291   3.371   0.220   2.798
 6148SOL    HW223292   3.457   0.304   2.688
 6149SOL     OW23293   1.901   1.077   2.162
 6149SOL    HW123294   2.000   1.066   2.153
 6149SOL    HW223295   1.861   0.991   2.194
 6150SOL     OW23296   2.737   1.646   2.199
 6150SOL    HW123297   2.660   1.611   2.145
 6150SOL    HW223298   2.705   1.717   2.261
 6151SOL     OW23299   2.092   0.628   3.837
 6151SOL    HW123300   1.999   0.626   3.874
 6151SOL    HW223301   2.093   0.589   3.745
 6152SOL     OW23302   2.431   1.275   4.889
 6152SOL    HW123303   2.338   1.268   4.852
 6152SOL    HW223304   2.442   1.364   4.933
 6153SOL     OW23305   3.417   1.511   4.427
 6153SOL    HW123306   3.360   1.495   4.508
 6153SOL    HW223307   3.358   1.521   4.347
 6154SOL     OW23308   2.997   0.703   4.441
 6154SOL    HW123309   3.054   0.781   4.416
 6154SOL    HW223310   2.937   0.729   4.517
 6155SOL     OW23311   3.617   0.607   3.955
 6155SOL    HW123312   3.605   0.594   3.856
 6155SOL    HW223313   3.587   0.526   4.004
 6156SOL     OW23314   2.630   1.144   4.747
 6156SOL    HW123315   2.552   1.161   4.807
 6156SOL    HW223316   2.664   1.231   4.711
 6157SOL     OW23317   2.712   0.798   5.547
 6157SOL    HW123318   2.708   0.874   5.612
 6157SOL    HW223319   2.734   0.834   5.456
 6158SOL     OW23320   2.547   1.012   4.389
 6158SOL    HW123321   2.616   0.996   4.459
 6158SOL    HW223322   2.474   1.069   4.427
 6159SOL     OW23323   2.548   1.161   5.527
 6159SOL    HW123324   2.608   1.240   5.541
 6159SOL    HW223325   2.462   1.192   5.486
 6160SOL     OW23326   2.197   1.435   4.785
 6160SOL    HW123327   2.119   1.404   4.732
 6160SOL    HW223328   2.255   1.493   4.728
 6161SOL     OW23329   3.322   1.505   5.063
 6161SOL    HW123330   3.346   1.599   5.089
 6161SOL    HW223331   3.306   1.451   5.145
 6162SOL     OW23332   2.300   0.392   5.223
 6162SOL    HW123333   2.382   0.336   5.232
 6162SOL    HW223334   2.219   0.334   5.227
 6163SOL     OW23335   3.465   0.447   4.461
 6163SOL    HW123336   3.391   0.493   4.411
 6163SOL    HW223337   3.516   0.515   4.514
 6164SOL     OW23338   2.093   1.713   4.207
 6164SOL    HW123339   2.127   1.790   4.261
 6164SOL    HW223340   2.137   1.713   4.117
 6165SOL     OW23341   2.989   1.341   5.414
 6165SOL    HW123342   3.036   1.341   5.502
 6165SOL    HW223343   2.941   1.254   5.403
 6166SOL     OW23344   2.092   1.434   4.262
 6166SOL    HW123345   2.066   1.530   4.262
 6166SOL    HW223346   2.021   1.380   4.307
 6167SOL     OW23347   2.102   1.091   4.610
 6167SOL    HW123348   2.116   1.007   4.662
 6167SOL    HW223349   2.047   1.155   4.665
 6168SOL     OW23350   2.482   1.786   5.163
 6168SOL    HW123351   2.390   1.769   5.198
 6168SOL    HW223352   2.510   1.878   5.189
 6169SOL     OW23353   2.468   0.964   3.847
 6169SOL    HW123354   2.475   1.048   3.793
 6169SOL    HW223355   2.514   0.977   3.935
 6170SOL     OW23356   3.456   0.114   5.204
 6170SOL    HW123357   3.438   0.181   5.132
 6170SOL    HW223358   3.453   0.160   5.293
 6171SOL     OW23359   3.704   1.767   4.083
 6171SOL    HW123360   3.758   1.738   4.163
 6171SOL    HW223361   3.734   1.857   4.054
 6172SOL     OW23362   1.889   1.596   3.841
 6172SOL    HW123363   1.870   1.500   3.862
 6172SOL    HW223364   1.856   1.654   3.916
 6173SOL     OW23365   3.551   0.922   4.336
 6173SOL    HW123366   3.646   0.893   4.344
 6173SOL    HW223367   3.543   0.987   4.261
 6174SOL     OW23368   3.503   1.108   4.156
 6174SOL    HW123369   3.589   1.110   4.104
 6174SOL    HW223370   3.517   1.155   4.244
 6175SOL     OW23371   1.975   0.737   5.321
 6175SOL    HW123372   2.063   0.724   5.366
 6175SOL    HW223373   1.962   0.834   5.299
 6176SOL     OW23374   2.475   1.365   4.450
 6176SOL    HW123375   2.426   1.278   4.459
 6176SOL    HW223376   2.452   1.408   4.363
 6177SOL     OW23377   3.155   1.228   5.147
 6177SOL    HW123378   3.192   1.155   5.089
 6177SOL    HW223379   3.207   1.233   5.232
 6178SOL     OW23380   2.059   0.976   4.988
 6178SOL    HW123381   2.148   0.931   4.974
 6178SOL    HW223382   1.986   0.911   4.969
 6179SOL     OW23383   3.387   0.999   3.914
 6179SOL    HW123384   3.324   0.923   3.927
 6179SOL    HW223385   3.435   1.017   4.000
 6180SOL     OW23386   2.179   0.251   5.525
 6180SOL    HW123387   2.250   0.322   5.531
 6180SOL    HW223388   2.091   0.290   5.553
 6181SOL     OW23389   3.328   1.417   4.677
 6181SOL    HW123390   3.269   1.423   4.757
 6181SOL    HW223391   3.313   1.329   4.631
 6182SOL     OW23392   3.529   1.714   4.296
 6182SOL    HW123393   3.488   1.691   4.208
 6182SOL    HW223394   3.511   1.640   4.361
 6183SOL     OW23395   2.460   0.729   3.994
 6183SOL    HW123396   2.484   0.798   3.926
 6183SOL    HW223397   2.382   0.762   4.048
 6184SOL     OW23398   3.438   1.662   4.031
 6184SOL    HW123399   3.527   1.708   4.034
 6184SOL    HW223400   3.417   1.638   3.936
 6185SOL     OW23401   2.669   0.605   5.189
 6185SOL    HW123402   2.622   0.602   5.278
 6185SOL    HW223403   2.618   0.550   5.123
 6186SOL     OW23404   3.256   0.469   5.398
 6186SOL    HW123405   3.236   0.512   5.486
 6186SOL    HW223406   3.334   0.407   5.407
 6187SOL     OW23407   2.853   0.410   4.966
 6187SOL    HW123408   2.776   0.444   5.020
 6187SOL    HW223409   2.819   0.359   4.887
 6188SOL     OW23410   2.903   0.701   4.153
 6188SOL    HW123411   2.929   0.697   4.249
 6188SOL    HW223412   2.818   0.650   4.139
 6189SOL     OW23413   1.992   1.821   5.295
 6189SOL    HW123414   1.982   1.806   5.394
 6189SOL    HW223415   1.906   1.857   5.259
 6190SOL     OW23416   2.727   0.348   3.919
 6190SOL    HW123417   2.786   0.411   3.870
 6190SOL    HW223418   2.746   0.254   3.890
 6191SOL     OW23419   3.581   0.585   5.555
 6191SOL    HW123420   3.555   0.674   5.519
 6191SOL    HW223421   3.579   0.517   5.482
 6192SOL     OW23422   3.224   1.144   4.269
 6192SOL    HW123423   3.307   1.115   4.221
 6192SOL    HW223424   3.175   1.211   4.213
 6193SOL     OW23425   2.870   1.456   4.201
 6193SOL    HW123426   2.824   1.528   4.149
 6193SOL    HW223427   2.866   1.476   4.299
 6194SOL     OW23428   2.213   1.801   4.577
 6194SOL    HW123429   2.263   1.715   4.583
 6194SOL    HW223430   2.278   1.878   4.574
 6195SOL     OW23431   3.089   1.550   5.230
 6195SOL    HW123432   3.095   1.473   5.294
 6195SOL    HW223433   3.037   1.524   5.150
 6196SOL     OW23434   2.183   0.943   3.966
 6196SOL    HW123435   2.265   0.982   3.924
 6196SOL    HW223436   2.156   0.861   3.917
 6197SOL     OW23437   3.320   0.735   4.452
 6197SOL    HW123438   3.315   0.670   4.527
 6197SOL    HW223439   3.400   0.794   4.465
 6198SOL     OW23440   2.323   1.266   5.451
 6198SOL    HW123441   2.273   1.267   5.365
 6198SOL    HW223442   2.260   1.248   5.527
 6199SOL     OW23443   2.973   1.776   3.961
 6199SOL    HW123444   2.913   1.714   4.011
 6199SOL    HW223445   3.004   1.732   3.876
 6200SOL     OW23446   2.064   0.285   5.222
 6200SOL    HW123447   1.984   0.345   5.209
 6200SOL    HW223448   2.054   0.236   5.308
 6201SOL     OW23449   3.494   1.377   3.805
 6201SOL    HW123450   3.462   1.471   3.795
 6201SOL    HW223451   3.418   1.314   3.793
 6202SOL     OW23452   2.326   1.743   4.047
 6202SOL    HW123453   2.359   1.782   4.133
 6202SOL    HW223454   2.402   1.736   3.982
 6203SOL     OW23455   3.262   0.107   4.150
 6203SOL    HW123456   3.238   0.070   4.060
 6203SOL    HW223457   3.361   0.123   4.154
 6204SOL     OW23458   2.111   1.785   4.965
 6204SOL    HW123459   2.168   1.720   5.015
 6204SOL    HW223460   2.095   1.752   4.872
 6205SOL     OW23461   2.802   1.698   4.628
 6205SOL    HW123462   2.882   1.641   4.649
 6205SOL    HW223463   2.753   1.658   4.551
 6206SOL     OW23464   2.244   0.700   4.204
 6206SOL    HW123465   2.289   0.610   4.201
 6206SOL    HW223466   2.150   0.689   4.237
 6207SOL     OW23467   3.409   0.222   5.453
 6207SOL    HW123468   3.404   0.259   5.545
 6207SOL    HW223469   3.337   0.153   5.441
 6208SOL     OW23470   2.476   0.122   3.841
 6208SOL    HW123471   2.574   0.100   3.848
 6208SOL    HW223472   2.445   0.105   3.748
 6209SOL     OW23473   2.643   0.264   5.473
 6209SOL    HW123474   2.710   0.203   5.516
 6209SOL    HW223475   2.570   0.283   5.538
 6210SOL     OW23476   2.750   1.514   4.919
 6210SOL    HW123477   2.727   1.489   4.825
 6210SOL    HW223478   2.811   1.445   4.958
 6211SOL     OW23479   3.213   0.590   5.157
 6211SOL    HW123480   3.241   0.547   5.242
 6211SOL    HW223481   3.238   0.686   5.158
 6212SOL     OW23482   2.665   1.402   4.648
 6212SOL    HW123483   2.755   1.416   4.606
 6212SOL    HW223484   2.594   1.404   4.577
 6213SOL     OW23485   2.784   0.503   4.623
 6213SOL    HW123486   2.759   0.494   4.527
 6213SOL    HW223487   2.832   0.421   4.654
 6214SOL     OW23488   2.401   0.064   4.236
 6214SOL    HW123489   2.320   0.065   4.294
 6214SOL    HW223490   2.404   0.147   4.181
 6215SOL     OW23491   3.296   1.188   3.765
 6215SOL    HW123492   3.328   1.112   3.822
 6215SOL    HW223493   3.204   1.215   3.795
 6216SOL     OW23494   2.159   0.035   3.895
 6216SOL    HW123495   2.208   0.119   3.874
 6216SOL    HW223496   2.221  -0.030   3.940
 6217SOL     OW23497   2.797   0.236   4.204
 6217SOL    HW123498   2.749   0.277   4.126
 6217SOL    HW223499   2.896   0.234   4.185
 6218SOL     OW23500   2.938   0.683   5.188
 6218SOL    HW123501   2.858   0.622   5.191
 6218SOL    HW223502   3.019   0.630   5.164
 6219SOL     OW23503   3.089   1.570   4.517
 6219SOL    HW123504   3.110   1.644   4.452
 6219SOL    HW223505   3.157   1.570   4.590
 6220SOL     OW23506   2.321   1.152   4.465
 6220SOL    HW123507   2.250   1.125   4.530
 6220SOL    HW223508   2.295   1.124   4.372
 6221SOL     OW23509   3.133   1.797   4.315
 6221SOL    HW123510   3.177   1.861   4.251
 6221SOL    HW223511   3.083   1.849   4.385
 6222SOL     OW23512   2.894   0.549   3.740
 6222SOL    HW123513   2.853   0.631   3.701
 6222SOL    HW223514   2.958   0.575   3.813
 6223SOL     OW23515   1.940   0.556   5.110
 6223SOL    HW123516   2.032   0.555   5.069
 6223SOL    HW223517   1.934   0.630   5.177
 6224SOL     OW23518   2.423   0.222   4.871
 6224SOL    HW123519   2.461   0.138   4.908
 6224SOL    HW223520   2.335   0.241   4.915
 6225SOL     OW23521   2.728   0.454   4.366
 6225SOL    HW123522   2.696   0.526   4.304
 6225SOL    HW223523   2.752   0.373   4.313
 6226SOL     OW23524   3.291   1.173   4.591
 6226SOL    HW123525   3.236   1.089   4.584
 6226SOL    HW223526   3.317   1.202   4.499
 6227SOL     OW23527   3.328   0.590   4.716
 6227SOL    HW123528   3.298   0.495   4.723
 6227SOL    HW223529   3.401   0.606   4.782
 6228SOL     OW23530   3.719   0.833   4.101
 6228SOL    HW123531   3.761   0.769   4.165
 6228SOL    HW223532   3.681   0.782   4.023
 6229SOL     OW23533   2.350   1.385   3.898
 6229SOL    HW123534   2.263   1.370   3.945
 6229SOL    HW223535   2.333   1.411   3.803
 6230SOL     OW23536   3.526   1.280   4.381
 6230SOL    HW123537   3.625   1.288   4.395
 6230SOL    HW223538   3.481   1.364   4.412
 6231SOL     OW23539   3.252   0.575   3.802
 6231SOL    HW123540   3.198   0.554   3.883
 6231SOL    HW223541   3.343   0.534   3.811
 6232SOL     OW23542   2.389   0.256   4.052
 6232SOL    HW123543   2.416   0.197   3.977
 6232SOL    HW223544   2.389   0.351   4.021
 6233SOL     OW23545   3.616   1.223   5.312
 6233SOL    HW123546   3.707   1.184   5.299
 6233SOL    HW223547   3.624   1.319   5.336
 6234SOL     OW23548   2.926   1.347   5.064
 6234SOL    HW123549   2.846   1.324   5.119
 6234SOL    HW223550   3.009   1.321   5.113
 6235SOL     OW23551   3.454   1.629   5.349
 6235SOL    HW123552   3.481   1.663   5.259
 6235SOL    HW223553   3.533   1.591   5.395
 6236SOL     OW23554   2.973   1.195   4.824
 6236SOL    HW123555   2.933   1.239   4.905
 6236SOL    HW223556   2.932   1.232   4.741
 6237SOL     OW23557   3.500   1.099   4.803
 6237SOL    HW123558   3.505   1.180   4.862
 6237SOL    HW223559   3.414   1.101   4.752
 6238SOL     OW23560   2.777   0.089   5.126
 6238SOL    HW123561   2.802   0.069   5.031
 6238SOL    HW223562   2.849   0.145   5.168
 6239SOL     OW23563   2.842   1.116   5.443
 6239SOL    HW123564   2.743   1.122   5.453
 6239SOL    HW223565   2.865   1.036   5.387
 6240SOL     OW23566   2.567   1.050   4.092
 6240SOL    HW123567   2.553   1.057   4.191
 6240SOL    HW223568   2.651   0.999   4.074
 6241SOL     OW23569   2.272   0.813   4.975
 6241SOL    HW123570   2.358   0.825   5.025
 6241SOL    HW223571   2.230   0.726   5.002
 6242SOL     OW23572   1.926   1.564   5.055
 6242SOL    HW123573   1.880   1.646   5.021
 6242SOL    HW223574   2.024   1.583   5.064
 6243SOL     OW23575   2.229   1.100   4.225
 6243SOL    HW123576   2.222   1.183   4.169
 6243SOL    HW223577   2.233   1.020   4.165
 6244SOL     OW23578   2.428   0.537   4.589
 6244SOL    HW123579   2.440   0.603   4.515
 6244SOL    HW223580   2.474   0.571   4.672
 6245SOL     OW23581   3.114   1.348   4.112
 6245SOL    HW123582   3.164   1.425   4.152
 6245SOL    HW223583   3.019   1.350   4.144
 6246SOL     OW23584   3.134   1.445   4.866
 6246SOL    HW123585   3.181   1.458   4.953
 6246SOL    HW223586   3.068   1.371   4.875
 6247SOL     OW23587   3.444   0.639   4.196
 6247SOL    HW123588   3.413   0.700   4.269
 6247SOL    HW223589   3.494   0.691   4.127
 6248SOL     OW23590   2.216   1.510   5.053
 6248SOL    HW123591   2.195   1.466   4.966
 6248SOL    HW223592   2.313   1.536   5.056
 6249SOL     OW23593   2.264   0.751   5.322
 6249SOL    HW123594   2.332   0.806   5.275
 6249SOL    HW223595   2.304   0.663   5.349
 6250SOL     OW23596   3.449   0.779   5.394
 6250SOL    HW123597   3.357   0.817   5.389
 6250SOL    HW223598   3.509   0.826   5.329
 6251SOL     OW23599   2.875   0.105   5.494
 6251SOL    HW123600   2.881   0.190   5.442
 6251SOL    HW223601   2.907   0.029   5.437
 6252SOL     OW23602   2.366   0.050   5.464
 6252SOL    HW123603   2.324  -0.007   5.394
 6252SOL    HW223604   2.300   0.119   5.496
 6253SOL     OW23605   2.435   0.870   4.753
 6253SOL    HW123606   2.479   0.959   4.744
 6253SOL    HW223607   2.372   0.870   4.830
 6254SOL     OW23608   3.222   0.862   4.769
 6254SOL    HW123609   3.147   0.862   4.703
 6254SOL    HW223610   3.259   0.770   4.778
 6255SOL     OW23611   3.071   0.525   3.999
 6255SOL    HW123612   3.084   0.441   4.053
 6255SOL    HW223613   3.042   0.599   4.059
 6256SOL     OW23614   1.899   1.310   5.006
 6256SOL    HW123615   1.952   1.261   5.074
 6256SOL    HW223616   1.921   1.408   5.011
 6257SOL     OW23617   2.594   0.634   4.788
 6257SOL    HW123618   2.653   0.608   4.712
 6257SOL    HW223619   2.566   0.730   4.777
 6258SOL     OW23620   3.590   0.935   5.578
 6258SOL    HW123621   3.544   0.928   5.489
 6258SOL    HW223622   3.528   0.979   5.644
 6259SOL     OW23623   3.484   0.367   4.098
 6259SOL    HW123624   3.486   0.291   4.162
 6259SOL    HW223625   3.436   0.444   4.138
 6260SOL     OW23626   2.885   0.766   4.690
 6260SOL    HW123627   2.900   0.787   4.786
 6260SOL    HW223628   2.855   0.671   4.681
 6261SOL     OW23629   2.842   1.573   5.424
 6261SOL    HW123630   2.822   1.617   5.336
 6261SOL    HW223631   2.881   1.482   5.408
 6262SOL     OW23632   2.212   0.898   5.528
 6262SOL    HW123633   2.288   0.942   5.576
 6262SOL    HW223634   2.247   0.851   5.446
 6263SOL     OW23635   3.402   0.274   3.849
 6263SOL    HW123636   3.341   0.199   3.872
 6263SOL    HW223637   3.424   0.326   3.932
 6264SOL     OW23638   3.165   0.838   3.766
 6264SOL    HW123639   3.199   0.745   3.781
 6264SOL    HW223640   3.183   0.865   3.671
 6265SOL     OW23641   2.930   1.333   4.573
 6265SOL    HW123642   2.937   1.249   4.518
 6265SOL    HW223643   2.992   1.402   4.537
 6266SOL     OW23644   2.181   0.810   4.673
 6266SOL    HW123645   2.274   0.846   4.678
 6266SOL    HW223646   2.175   0.725   4.725
 6267SOL     OW23647   3.000   0.380   5.402
 6267SOL    HW123648   2.955   0.443   5.466
 6267SOL    HW223649   3.093   0.411   5.385
 6268SOL     OW23650   3.022   0.207   5.201
 6268SOL    HW123651   3.022   0.271   5.278
 6268SOL    HW223652   3.050   0.255   5.118
 6269SOL     OW23653   1.870   1.326   3.924
 6269SOL    HW123654   1.777   1.347   3.893
 6269SOL    HW223655   1.880   1.227   3.937
 6270SOL     OW23656   1.950   1.801   4.651
 6270SOL    HW123657   1.908   1.715   4.624
 6270SOL    HW223658   2.044   1.804   4.617
 6271SOL     OW23659   2.366   1.568   4.634
 6271SOL    HW123660   2.432   1.642   4.643
 6271SOL    HW223661   2.410   1.489   4.592
 6272SOL     OW23662   2.864   0.796   4.962
 6272SOL    HW123663   2.905   0.764   5.048
 6272SOL    HW223664   2.768   0.769   4.959
 6273SOL     OW23665   2.051   0.520   5.446
 6273SOL    HW123666   2.110   0.480   5.376
 6273SOL    HW223667   1.993   0.591   5.405
 6274SOL     OW23668   3.231   0.950   5.384
 6274SOL    HW123669   3.270   1.039   5.404
 6274SOL    HW223670   3.241   0.930   5.287
 6275SOL     OW23671   2.677   0.572   4.049
 6275SOL    HW123672   2.684   0.483   4.003
 6275SOL    HW223673   2.583   0.606   4.041
 6276SOL     OW23674   3.519   0.604   4.930
 6276SOL    HW123675   3.481   0.535   4.992
 6276SOL    HW223676   3.601   0.568   4.886
 6277SOL     OW23677   2.114   1.564   5.468
 6277SOL    HW123678   2.084   1.621   5.544
 6277SOL    HW223679   2.107   1.467   5.494
 6278SOL     OW23680   2.533   0.464   4.993
 6278SOL    HW123681   2.499   0.375   4.963
 6278SOL    HW223682   2.559   0.518   4.913
 6279SOL     OW23683   2.792   1.678   5.189
 6279SOL    HW123684   2.768   1.660   5.094
 6279SOL    HW223685   2.822   1.772   5.199
 6280SOL     OW23686   2.335   0.500   3.915
 6280SOL    HW123687   2.396   0.580   3.919
 6280SOL    HW223688   2.240   0.531   3.922
 6281SOL     OW23689   2.021   1.137   5.190
 6281SOL    HW123690   2.043   1.076   5.266
 6281SOL    HW223691   2.031   1.088   5.104
 6282SOL     OW23692   3.209   1.059   4.958
 6282SOL    HW123693   3.233   0.996   4.884
 6282SOL    HW223694   3.119   1.099   4.940
 6283SOL     OW23695   3.164   0.855   4.033
 6283SOL    HW123696   3.078   0.824   4.075
 6283SOL    HW223697   3.160   0.841   3.934
 6284SOL     OW23698   3.621   1.747   4.878
 6284SOL    HW123699   3.682   1.777   4.805
 6284SOL    HW223700   3.583   1.658   4.856
 6285SOL     OW23701   3.114   1.731   4.852
 6285SOL    HW123702   3.198   1.736   4.798
 6285SOL    HW223703   3.091   1.635   4.870
 6286SOL     OW23704   1.945   1.258   4.746
 6286SOL    HW123705   1.940   1.257   4.846
 6286SOL    HW223706   1.862   1.217   4.708
 6287SOL     OW23707   2.550   1.662   5.440
 6287SOL    HW123708   2.494   1.743   5.449
 6287SOL    HW223709   2.602   1.666   5.354
 6288SOL     OW23710   3.588   0.135   4.247
 6288SOL    HW123711   3.661   0.118   4.180
 6288SOL    HW223712   3.557   0.048   4.285
 6289SOL     OW23713   3.250   1.573   4.201
 6289SOL    HW123714   3.317   1.585   4.127
 6289SOL    HW223715   3.210   1.662   4.224
 6290SOL     OW23716   1.992   1.794   5.575
 6290SOL    HW123717   1.951   1.720   5.628
 6290SOL    HW223718   2.056   1.845   5.633
 6291SOL     OW23719   3.142   0.927   4.396
 6291SOL    HW123720   3.202   0.846   4.398
 6291SOL    HW223721   3.182   0.996   4.336
 6292SOL     OW23722   2.692   1.273   5.146
 6292SOL    HW123723   2.687   1.306   5.241
 6292SOL    HW223724   2.606   1.292   5.100
 6293SOL     OW23725   2.534   1.616   3.878
 6293SOL    HW123726   2.543   1.626   3.779
 6293SOL    HW223727   2.494   1.527   3.899
 6294SOL     OW23728   3.512   1.720   5.118
 6294SOL    HW123729   3.565   1.730   5.034
 6294SOL    HW223730   3.485   1.810   5.152
 6295SOL     OW23731   3.703   0.175   4.687
 6295SOL    HW123732   3.742   0.090   4.651
 6295SOL    HW223733   3.605   0.177   4.668
 6296SOL     OW23734   2.125   0.326   4.444
 6296SOL    HW123735   2.046   0.377   4.410
 6296SOL    HW223736   2.116   0.311   4.542
 6297SOL     OW23737   3.056   1.612   3.755
 6297SOL    HW123738   3.062   1.519   3.792
 6297SOL    HW223739   2.997   1.612   3.675
 6298SOL     OW23740   2.684   1.002   5.096
 6298SOL    HW123741   2.724   1.001   5.004
 6298SOL    HW223742   2.694   1.094   5.136
 6299SOL     OW23743   2.778   0.910   4.015
 6299SOL    HW123744   2.841   0.948   3.947
 6299SOL    HW223745   2.818   0.827   4.054
 6300SOL     OW23746   3.366   1.607   3.768
 6300SOL    HW123747   3.274   1.644   3.775
 6300SOL    HW223748   3.404   1.627   3.678
 6301SOL     OW23749   2.234   1.288   5.214
 6301SOL    HW123750   2.221   1.381   5.180
 6301SOL    HW223751   2.150   1.236   5.201
 6302SOL     OW23752   3.476   1.292   5.013
 6302SOL    HW123753   3.536   1.295   5.093
 6302SOL    HW223754   3.401   1.356   5.026
 6303SOL     OW23755   2.901   1.098   4.420
 6303SOL    HW123756   2.831   1.051   4.474
 6303SOL    HW223757   2.960   1.030   4.377
 6304SOL     OW23758   2.452   1.487   4.215
 6304SOL    HW123759   2.494   1.429   4.145
 6304SOL    HW223760   2.408   1.566   4.171
 6305SOL     OW23761   3.571   0.385   5.105
 6305SOL    HW123762   3.644   0.454   5.109
 6305SOL    HW223763   3.599   0.310   5.046
 6306SOL     OW23764   2.534   0.203   5.213
 6306SOL    HW123765   2.624   0.187   5.173
 6306SOL    HW223766   2.542   0.208   5.312
 6307SOL     OW23767   1.937   0.345   3.757
 6307SOL    HW123768   1.845   0.317   3.728
 6307SOL    HW223769   1.968   0.422   3.701
 6308SOL     OW23770   3.302   0.856   5.122
 6308SOL    HW123771   3.245   0.908   5.059
 6308SOL    HW223772   3.398   0.868   5.098
 6309SOL     OW23773   1.934   0.166   4.042
 6309SOL    HW123774   1.917   0.249   3.988
 6309SOL    HW223775   2.024   0.129   4.020
 6310SOL     OW23776   3.045   1.335   3.843
 6310SOL    HW123777   2.946   1.324   3.845
 6310SOL    HW223778   3.079   1.350   3.936
 6311SOL     OW23779   2.475   0.842   5.155
 6311SOL    HW123780   2.531   0.923   5.138
 6311SOL    HW223781   2.534   0.762   5.158
 6312SOL     OW23782   2.578   0.565   5.432
 6312SOL    HW123783   2.597   0.630   5.506
 6312SOL    HW223784   2.638   0.485   5.441
 6313SOL     OW23785   3.312   1.220   5.357
 6313SOL    HW123786   3.303   1.210   5.456
 6313SOL    HW223787   3.408   1.213   5.331
 6314SOL     OW23788   2.252   1.741   5.284
 6314SOL    HW123789   2.161   1.782   5.282
 6314SOL    HW223790   2.245   1.647   5.316
 6315SOL     OW23791   3.536   0.883   4.978
 6315SOL    HW123792   3.509   0.794   4.941
 6315SOL    HW223793   3.537   0.951   4.905
 6316SOL     OW23794   3.087   0.325   4.173
 6316SOL    HW123795   3.152   0.251   4.162
 6316SOL    HW223796   3.107   0.375   4.257
 6317SOL     OW23797   2.456   0.745   4.376
 6317SOL    HW123798   2.506   0.830   4.357
 6317SOL    HW223799   2.368   0.747   4.328
 6318SOL     OW23800   3.639   0.342   5.366
 6318SOL    HW123801   3.622   0.373   5.272
 6318SOL    HW223802   3.555   0.305   5.404
 6319SOL     OW23803   3.592   0.934   5.241
 6319SOL    HW123804   3.630   1.025   5.256
 6319SOL    HW223805   3.584   0.917   5.142
 6320SOL     OW23806   2.721   1.374   3.740
 6320SOL    HW123807   2.675   1.389   3.828
 6320SOL    HW223808   2.765   1.459   3.710
 6321SOL     OW23809   2.721   0.956   4.585
 6321SOL    HW123810   2.775   0.887   4.633
 6321SOL    HW223811   2.689   1.025   4.651
 6322SOL     OW23812   2.945   0.984   3.811
 6322SOL    HW123813   2.922   1.037   3.729
 6322SOL    HW223814   3.026   0.928   3.792
 6323SOL     OW23815   3.723   1.569   4.575
 6323SOL    HW123816   3.652   1.557   4.505
 6323SOL    HW223817   3.724   1.490   4.635
 6324SOL     OW23818   2.083   1.314   5.568
 6324SOL    HW123819   2.018   1.241   5.547
 6324SOL    HW223820   2.087   1.328   5.666
 6325SOL     OW23821   1.941   1.240   4.377
 6325SOL    HW123822   1.940   1.193   4.465
 6325SOL    HW223823   2.023   1.212   4.326
 6326SOL     OW23824   2.534   1.391   5.348
 6326SOL    HW123825   2.456   1.341   5.386
 6326SOL    HW223826   2.531   1.486   5.379
 6327SOL     OW23827   3.686   0.192   4.951
 6327SOL    HW123828   3.682   0.102   4.995
 6327SOL    HW223829   3.689   0.181   4.852
 6328SOL     OW23830   2.290   0.424   4.244
 6328SOL    HW123831   2.320   0.352   4.182
 6328SOL    HW223832   2.251   0.384   4.327
 6329SOL     OW23833   3.567   1.487   4.828
 6329SOL    HW123834   3.474   1.462   4.801
 6329SOL    HW223835   3.593   1.437   4.910
 6330SOL     OW23836   2.179   0.547   5.004
 6330SOL    HW123837   2.217   0.488   5.076
 6330SOL    HW223838   2.219   0.521   4.916
 6331SOL     OW23839   2.674   1.586   4.411
 6331SOL    HW123840   2.706   1.596   4.317
 6331SOL    HW223841   2.595   1.524   4.413
 6332SOL     OW23842   2.863   0.034   4.878
 6332SOL    HW123843   2.800  -0.038   4.847
 6332SOL    HW223844   2.956  -0.002   4.878
 6333SOL     OW23845   2.632   1.330   4.025
 6333SOL    HW123846   2.586   1.243   4.042
 6333SOL    HW223847   2.723   1.327   4.066
 6334SOL     OW23848   2.480   1.567   5.008
 6334SOL    HW123849   2.475   1.649   5.065
 6334SOL    HW223850   2.569   1.564   4.963
 6335SOL     OW23851   3.214   0.052   3.892
 6335SOL    HW123852   3.249   0.011   3.808
 6335SOL    HW223853   3.124   0.014   3.912
 6336SOL     OW23854   1.901   1.077   4.024
 6336SOL    HW123855   2.000   1.066   4.015
 6336SOL    HW223856   1.861   0.991   4.056
 6337SOL     OW23857   2.737   1.646   4.061
 6337SOL    HW123858   2.660   1.611   4.007
 6337SOL    HW223859   2.705   1.717   4.123
 6338SOL     OW23860   2.092   0.628   5.699
 6338SOL    HW123861   1.999   0.626   5.736
 6338SOL    HW223862   2.093   0.589   5.607
 6339SOL     OW23863   2.087   0.275   6.582
 6339SOL    HW123864   2.122   0.258   6.674
 6339SOL    HW223865   1.999   0.230   6.570
 6340SOL     OW23866   1.881   0.368   6.233
 6340SOL    HW123867   1.799   0.411   6.272
 6340SOL    HW223868   1.853   0.295   6.170
 6341SOL     OW23869   2.431   1.275   6.751
 6341SOL    HW123870   2.338   1.268   6.714
 6341SOL    HW223871   2.442   1.364   6.795
 6342SOL     OW23872   3.417   1.511   6.289
 6342SOL    HW123873   3.360   1.495   6.370
 6342SOL    HW223874   3.358   1.521   6.209
 6343SOL     OW23875   2.997   0.703   6.303
 6343SOL    HW123876   3.054   0.781   6.278
 6343SOL    HW223877   2.937   0.729   6.379
 6344SOL     OW23878   2.630   1.144   6.609
 6344SOL    HW123879   2.552   1.161   6.669
 6344SOL    HW223880   2.664   1.231   6.573
 6345SOL     OW23881   2.712   0.798   7.409
 6345SOL    HW123882   2.708   0.874   7.474
 6345SOL    HW223883   2.734   0.834   7.318
 6346SOL     OW23884   2.547   1.012   6.251
 6346SOL    HW123885   2.616   0.996   6.321
 6346SOL    HW223886   2.474   1.069   6.289
 6347SOL     OW23887   2.548   1.161   7.389
 6347SOL    HW123888   2.608   1.240   7.403
 6347SOL    HW223889   2.462   1.192   7.348
 6348SOL     OW23890   2.197   1.435   6.647
 6348SOL    HW123891   2.119   1.404   6.594
 6348SOL    HW223892   2.255   1.493   6.590
 6349SOL     OW23893   2.300   0.392   7.085
 6349SOL    HW123894   2.382   0.336   7.094
 6349SOL    HW223895   2.219   0.334   7.089
 6350SOL     OW23896   3.465   0.447   6.323
 6350SOL    HW123897   3.391   0.493   6.273
 6350SOL    HW223898   3.516   0.515   6.376
 6351SOL     OW23899   2.093   1.713   6.069
 6351SOL    HW123900   2.127   1.790   6.123
 6351SOL    HW223901   2.137   1.713   5.979
 6352SOL     OW23902   2.989   1.341   7.276
 6352SOL    HW123903   3.036   1.341   7.364
 6352SOL    HW223904   2.941   1.254   7.265
 6353SOL     OW23905   2.092   1.434   6.124
 6353SOL    HW123906   2.066   1.530   6.124
 6353SOL    HW223907   2.021   1.380   6.169
 6354SOL     OW23908   2.102   1.091   6.472
 6354SOL    HW123909   2.116   1.007   6.524
 6354SOL    HW223910   2.047   1.155   6.527
 6355SOL     OW23911   2.482   1.786   7.025
 6355SOL    HW123912   2.390   1.769   7.060
 6355SOL    HW223913   2.510   1.878   7.051
 6356SOL     OW23914   2.468   0.964   5.709
 6356SOL    HW123915   2.475   1.048   5.655
 6356SOL    HW223916   2.514   0.977   5.797
 6357SOL     OW23917   3.456   0.114   7.066
 6357SOL    HW123918   3.438   0.181   6.994
 6357SOL    HW223919   3.453   0.160   7.155
 6358SOL     OW23920   1.984   0.643   6.149
 6358SOL    HW123921   1.939   0.555   6.166
 6358SOL    HW223922   1.983   0.697   6.233
 6359SOL     OW23923   3.704   1.767   5.945
 6359SOL    HW123924   3.758   1.738   6.025
 6359SOL    HW223925   3.734   1.857   5.916
 6360SOL     OW23926   1.889   1.596   5.703
 6360SOL    HW123927   1.870   1.500   5.724
 6360SOL    HW223928   1.856   1.654   5.778
 6361SOL     OW23929   3.551   0.922   6.198
 6361SOL    HW123930   3.646   0.893   6.206
 6361SOL    HW223931   3.543   0.987   6.123
 6362SOL     OW23932   3.503   1.108   6.018
 6362SOL    HW123933   3.589   1.110   5.966
 6362SOL    HW223934   3.517   1.155   6.106
 6363SOL     OW23935   1.975   0.737   7.183
 6363SOL    HW123936   2.063   0.724   7.228
 6363SOL    HW223937   1.962   0.834   7.161
 6364SOL     OW23938   2.475   1.365   6.312
 6364SOL    HW123939   2.426   1.278   6.321
 6364SOL    HW223940   2.452   1.408   6.225
 6365SOL     OW23941   3.155   1.228   7.009
 6365SOL    HW123942   3.192   1.155   6.951
 6365SOL    HW223943   3.207   1.233   7.094
 6366SOL     OW23944   2.671   0.004   6.088
 6366SOL    HW123945   2.711   0.095   6.079
 6366SOL    HW223946   2.571   0.012   6.094
 6367SOL     OW23947   2.059   0.976   6.850
 6367SOL    HW123948   2.148   0.931   6.836
 6367SOL    HW223949   1.986   0.911   6.831
 6368SOL     OW23950   3.387   0.999   5.776
 6368SOL    HW123951   3.324   0.923   5.789
 6368SOL    HW223952   3.435   1.017   5.862
 6369SOL     OW23953   3.049   1.792   7.202
 6369SOL    HW123954   3.073   1.852   7.126
 6369SOL    HW223955   3.056   1.697   7.172
 6370SOL     OW23956   3.529   1.714   6.158
 6370SOL    HW123957   3.488   1.691   6.070
 6370SOL    HW223958   3.511   1.640   6.223
 6371SOL     OW23959   2.460   0.729   5.856
 6371SOL    HW123960   2.484   0.798   5.788
 6371SOL    HW223961   2.382   0.762   5.910
 6372SOL     OW23962   3.143   0.345   6.530
 6372SOL    HW123963   3.057   0.295   6.517
 6372SOL    HW223964   3.205   0.291   6.586
 6373SOL     OW23965   3.438   1.662   5.893
 6373SOL    HW123966   3.527   1.708   5.896
 6373SOL    HW223967   3.417   1.638   5.798
 6374SOL     OW23968   2.669   0.605   7.051
 6374SOL    HW123969   2.622   0.602   7.140
 6374SOL    HW223970   2.618   0.550   6.985
 6375SOL     OW23971   3.256   0.469   7.260
 6375SOL    HW123972   3.236   0.512   7.348
 6375SOL    HW223973   3.334   0.407   7.269
 6376SOL     OW23974   2.835   0.890   7.158
 6376SOL    HW123975   2.881   0.806   7.129
 6376SOL    HW223976   2.779   0.924   7.083
 6377SOL     OW23977   2.853   0.410   6.828
 6377SOL    HW123978   2.776   0.444   6.882
 6377SOL    HW223979   2.819   0.359   6.749
 6378SOL     OW23980   2.903   0.701   6.015
 6378SOL    HW123981   2.929   0.697   6.111
 6378SOL    HW223982   2.818   0.650   6.001
 6379SOL     OW23983   1.938   0.811   6.375
 6379SOL    HW123984   2.037   0.799   6.384
 6379SOL    HW223985   1.914   0.906   6.396
 6380SOL     OW23986   2.727   0.348   5.781
 6380SOL    HW123987   2.786   0.411   5.732
 6380SOL    HW223988   2.746   0.254   5.752
 6381SOL     OW23989   3.581   0.585   7.417
 6381SOL    HW123990   3.555   0.674   7.381
 6381SOL    HW223991   3.579   0.517   7.344
 6382SOL     OW23992   3.224   1.144   6.131
 6382SOL    HW123993   3.307   1.115   6.083
 6382SOL    HW223994   3.175   1.211   6.075
 6383SOL     OW23995   2.412   0.196   6.471
 6383SOL    HW123996   2.407   0.191   6.571
 6383SOL    HW223997   2.414   0.292   6.442
 6384SOL     OW23998   2.870   1.456   6.063
 6384SOL    HW123999   2.824   1.528   6.011
 6384SOL    HW224000   2.866   1.476   6.161
 6385SOL     OW24001   2.213   1.801   6.439
 6385SOL    HW124002   2.263   1.715   6.445
 6385SOL    HW224003   2.278   1.878   6.436
 6386SOL     OW24004   3.657   1.066   6.459
 6386SOL    HW124005   3.595   1.051   6.383
 6386SOL    HW224006   3.605   1.077   6.544
 6387SOL     OW24007   3.089   1.550   7.092
 6387SOL    HW124008   3.095   1.473   7.156
 6387SOL    HW224009   3.037   1.524   7.012
 6388SOL     OW24010   2.183   0.943   5.828
 6388SOL    HW124011   2.265   0.982   5.786
 6388SOL    HW224012   2.156   0.861   5.779
 6389SOL     OW24013   3.320   0.735   6.314
 6389SOL    HW124014   3.315   0.670   6.389
 6389SOL    HW224015   3.400   0.794   6.327
 6390SOL     OW24016   2.323   1.266   7.313
 6390SOL    HW124017   2.273   1.267   7.227
 6390SOL    HW224018   2.260   1.248   7.389
 6391SOL     OW24019   2.973   1.776   5.823
 6391SOL    HW124020   2.913   1.714   5.873
 6391SOL    HW224021   3.004   1.732   5.738
 6392SOL     OW24022   3.494   1.377   5.667
 6392SOL    HW124023   3.462   1.471   5.657
 6392SOL    HW224024   3.418   1.314   5.655
 6393SOL     OW24025   2.326   1.743   5.909
 6393SOL    HW124026   2.359   1.782   5.995
 6393SOL    HW224027   2.402   1.736   5.844
 6394SOL     OW24028   3.262   0.107   6.012
 6394SOL    HW124029   3.238   0.070   5.922
 6394SOL    HW224030   3.361   0.123   6.016
 6395SOL     OW24031   2.111   1.785   6.827
 6395SOL    HW124032   2.168   1.720   6.877
 6395SOL    HW224033   2.095   1.752   6.734
 6396SOL     OW24034   2.802   1.698   6.490
 6396SOL    HW124035   2.882   1.641   6.511
 6396SOL    HW224036   2.753   1.658   6.413
 6397SOL     OW24037   3.409   0.222   7.315
 6397SOL    HW124038   3.404   0.259   7.407
 6397SOL    HW224039   3.337   0.153   7.303
 6398SOL     OW24040   2.476   0.122   5.703
 6398SOL    HW124041   2.574   0.100   5.710
 6398SOL    HW224042   2.445   0.105   5.610
 6399SOL     OW24043   2.643   0.264   7.335
 6399SOL    HW124044   2.710   0.203   7.378
 6399SOL    HW224045   2.570   0.283   7.400
 6400SOL     OW24046   2.750   1.514   6.781
 6400SOL    HW124047   2.727   1.489   6.687
 6400SOL    HW224048   2.811   1.445   6.820
 6401SOL     OW24049   3.213   0.590   7.019
 6401SOL    HW124050   3.241   0.547   7.104
 6401SOL    HW224051   3.238   0.686   7.020
 6402SOL     OW24052   2.665   1.402   6.510
 6402SOL    HW124053   2.755   1.416   6.468
 6402SOL    HW224054   2.594   1.404   6.439
 6403SOL     OW24055   2.784   0.503   6.485
 6403SOL    HW124056   2.759   0.494   6.389
 6403SOL    HW224057   2.832   0.421   6.516
 6404SOL     OW24058   3.296   1.188   5.627
 6404SOL    HW124059   3.328   1.112   5.684
 6404SOL    HW224060   3.204   1.215   5.657
 6405SOL     OW24061   2.159   0.035   5.757
 6405SOL    HW124062   2.208   0.119   5.736
 6405SOL    HW224063   2.221  -0.030   5.802
 6406SOL     OW24064   2.797   0.236   6.066
 6406SOL    HW124065   2.749   0.277   5.988
 6406SOL    HW224066   2.896   0.234   6.047
 6407SOL     OW24067   2.938   0.683   7.050
 6407SOL    HW124068   2.858   0.622   7.053
 6407SOL    HW224069   3.019   0.630   7.026
 6408SOL     OW24070   3.089   1.570   6.379
 6408SOL    HW124071   3.110   1.644   6.314
 6408SOL    HW224072   3.157   1.570   6.452
 6409SOL     OW24073   2.321   1.152   6.327
 6409SOL    HW124074   2.250   1.125   6.392
 6409SOL    HW224075   2.295   1.124   6.234
 6410SOL     OW24076   2.894   0.549   5.602
 6410SOL    HW124077   2.853   0.631   5.563
 6410SOL    HW224078   2.958   0.575   5.675
 6411SOL     OW24079   1.940   0.556   6.972
 6411SOL    HW124080   2.032   0.555   6.931
 6411SOL    HW224081   1.934   0.630   7.039
 6412SOL     OW24082   2.728   0.454   6.228
 6412SOL    HW124083   2.696   0.526   6.166
 6412SOL    HW224084   2.752   0.373   6.175
 6413SOL     OW24085   2.879   0.039   6.339
 6413SOL    HW124086   2.807   0.044   6.270
 6413SOL    HW224087   2.855  -0.030   6.408
 6414SOL     OW24088   3.291   1.173   6.453
 6414SOL    HW124089   3.236   1.089   6.446
 6414SOL    HW224090   3.317   1.202   6.361
 6415SOL     OW24091   3.328   0.590   6.578
 6415SOL    HW124092   3.298   0.495   6.585
 6415SOL    HW224093   3.401   0.606   6.644
 6416SOL     OW24094   3.719   0.833   5.963
 6416SOL    HW124095   3.761   0.769   6.027
 6416SOL    HW224096   3.681   0.782   5.885
 6417SOL     OW24097   2.350   1.385   5.760
 6417SOL    HW124098   2.263   1.370   5.807
 6417SOL    HW224099   2.333   1.411   5.665
 6418SOL     OW24100   3.526   1.280   6.243
 6418SOL    HW124101   3.625   1.288   6.257
 6418SOL    HW224102   3.481   1.364   6.274
 6419SOL     OW24103   3.616   1.223   7.174
 6419SOL    HW124104   3.707   1.184   7.161
 6419SOL    HW224105   3.624   1.319   7.198
 6420SOL     OW24106   2.926   1.347   6.926
 6420SOL    HW124107   2.846   1.324   6.981
 6420SOL    HW224108   3.009   1.321   6.975
 6421SOL     OW24109   3.454   1.629   7.211
 6421SOL    HW124110   3.481   1.663   7.121
 6421SOL    HW224111   3.533   1.591   7.257
 6422SOL     OW24112   2.973   1.195   6.686
 6422SOL    HW124113   2.933   1.239   6.767
 6422SOL    HW224114   2.932   1.232   6.603
 6423SOL     OW24115   3.500   1.099   6.665
 6423SOL    HW124116   3.505   1.180   6.724
 6423SOL    HW224117   3.414   1.101   6.614
 6424SOL     OW24118   2.777   0.089   6.988
 6424SOL    HW124119   2.802   0.069   6.893
 6424SOL    HW224120   2.849   0.145   7.030
 6425SOL     OW24121   2.842   1.116   7.305
 6425SOL    HW124122   2.743   1.122   7.315
 6425SOL    HW224123   2.865   1.036   7.249
 6426SOL     OW24124   2.567   1.050   5.954
 6426SOL    HW124125   2.553   1.057   6.053
 6426SOL    HW224126   2.651   0.999   5.936
 6427SOL     OW24127   2.272   0.813   6.837
 6427SOL    HW124128   2.358   0.825   6.887
 6427SOL    HW224129   2.230   0.726   6.864
 6428SOL     OW24130   3.136   0.386   6.848
 6428SOL    HW124131   3.157   0.460   6.912
 6428SOL    HW224132   3.047   0.403   6.805
 6429SOL     OW24133   1.926   1.564   6.917
 6429SOL    HW124134   1.880   1.646   6.883
 6429SOL    HW224135   2.024   1.583   6.926
 6430SOL     OW24136   2.229   1.100   6.087
 6430SOL    HW124137   2.222   1.183   6.031
 6430SOL    HW224138   2.233   1.020   6.027
 6431SOL     OW24139   2.428   0.537   6.451
 6431SOL    HW124140   2.440   0.603   6.377
 6431SOL    HW224141   2.474   0.571   6.534
 6432SOL     OW24142   3.114   1.348   5.974
 6432SOL    HW124143   3.164   1.425   6.014
 6432SOL    HW224144   3.019   1.350   6.006
 6433SOL     OW24145   3.134   1.445   6.728
 6433SOL    HW124146   3.181   1.458   6.815
 6433SOL    HW224147   3.068   1.371   6.737
 6434SOL     OW24148   2.216   1.510   6.915
 6434SOL    HW124149   2.195   1.466   6.828
 6434SOL    HW224150   2.313   1.536   6.918
 6435SOL     OW24151   2.264   0.751   7.184
 6435SOL    HW124152   2.332   0.806   7.137
 6435SOL    HW224153   2.304   0.663   7.211
 6436SOL     OW24154   3.449   0.779   7.256
 6436SOL    HW124155   3.357   0.817   7.251
 6436SOL    HW224156   3.509   0.826   7.191
 6437SOL     OW24157   2.875   0.105   7.356
 6437SOL    HW124158   2.881   0.190   7.304
 6437SOL    HW224159   2.907   0.029   7.299
 6438SOL     OW24160   2.366   0.050   7.326
 6438SOL    HW124161   2.324  -0.007   7.256
 6438SOL    HW224162   2.300   0.119   7.358
 6439SOL     OW24163   2.435   0.870   6.615
 6439SOL    HW124164   2.479   0.959   6.606
 6439SOL    HW224165   2.372   0.870   6.692
 6440SOL     OW24166   3.222   0.862   6.631
 6440SOL    HW124167   3.147   0.862   6.565
 6440SOL    HW224168   3.259   0.770   6.640
 6441SOL     OW24169   3.071   0.525   5.861
 6441SOL    HW124170   3.084   0.441   5.915
 6441SOL    HW224171   3.042   0.599   5.921
 6442SOL     OW24172   2.169   0.213   6.817
 6442SOL    HW124173   2.146   0.250   6.907
 6442SOL    HW224174   2.139   0.118   6.811
 6443SOL     OW24175   2.594   0.634   6.650
 6443SOL    HW124176   2.653   0.608   6.574
 6443SOL    HW224177   2.566   0.730   6.639
 6444SOL     OW24178   3.590   0.935   7.440
 6444SOL    HW124179   3.544   0.928   7.351
 6444SOL    HW224180   3.528   0.979   7.506
 6445SOL     OW24181   2.885   0.766   6.552
 6445SOL    HW124182   2.900   0.787   6.648
 6445SOL    HW224183   2.855   0.671   6.543
 6446SOL     OW24184   2.842   1.573   7.286
 6446SOL    HW124185   2.822   1.617   7.198
 6446SOL    HW224186   2.881   1.482   7.270
 6447SOL     OW24187   3.721   1.518   7.191
 6447SOL    HW124188   3.735   1.545   7.096
 6447SOL    HW224189   3.804   1.540   7.244
 6448SOL     OW24190   2.212   0.898   7.390
 6448SOL    HW124191   2.288   0.942   7.438
 6448SOL    HW224192   2.247   0.851   7.308
 6449SOL     OW24193   3.165   0.838   5.628
 6449SOL    HW124194   3.199   0.745   5.643
 6449SOL    HW224195   3.183   0.865   5.533
 6450SOL     OW24196   2.930   1.333   6.435
 6450SOL    HW124197   2.937   1.249   6.380
 6450SOL    HW224198   2.992   1.402   6.399
 6451SOL     OW24199   2.201   0.509   6.592
 6451SOL    HW124200   2.149   0.426   6.575
 6451SOL    HW224201   2.278   0.514   6.528
 6452SOL     OW24202   3.000   0.380   7.264
 6452SOL    HW124203   2.955   0.443   7.328
 6452SOL    HW224204   3.093   0.411   7.247
 6453SOL     OW24205   3.022   0.207   7.063
 6453SOL    HW124206   3.022   0.271   7.140
 6453SOL    HW224207   3.050   0.255   6.980
 6454SOL     OW24208   1.870   1.326   5.786
 6454SOL    HW124209   1.777   1.347   5.755
 6454SOL    HW224210   1.880   1.227   5.799
 6455SOL     OW24211   1.950   1.801   6.513
 6455SOL    HW124212   1.908   1.715   6.486
 6455SOL    HW224213   2.044   1.804   6.479
 6456SOL     OW24214   2.366   1.568   6.496
 6456SOL    HW124215   2.432   1.642   6.505
 6456SOL    HW224216   2.410   1.489   6.454
 6457SOL     OW24217   2.864   0.796   6.824
 6457SOL    HW124218   2.905   0.764   6.910
 6457SOL    HW224219   2.768   0.769   6.821
 6458SOL     OW24220   3.231   0.950   7.246
 6458SOL    HW124221   3.270   1.039   7.266
 6458SOL    HW224222   3.241   0.930   7.149
 6459SOL     OW24223   2.677   0.572   5.911
 6459SOL    HW124224   2.684   0.483   5.865
 6459SOL    HW224225   2.583   0.606   5.903
 6460SOL     OW24226   3.519   0.604   6.792
 6460SOL    HW124227   3.481   0.535   6.854
 6460SOL    HW224228   3.601   0.568   6.748
 6461SOL     OW24229   2.114   1.564   7.330
 6461SOL    HW124230   2.084   1.621   7.406
 6461SOL    HW224231   2.107   1.467   7.356
 6462SOL     OW24232   2.533   0.464   6.855
 6462SOL    HW124233   2.499   0.375   6.825
 6462SOL    HW224234   2.559   0.518   6.775
 6463SOL     OW24235   2.792   1.678   7.051
 6463SOL    HW124236   2.768   1.660   6.956
 6463SOL    HW224237   2.822   1.772   7.061
 6464SOL     OW24238   2.335   0.500   5.777
 6464SOL    HW124239   2.396   0.580   5.781
 6464SOL    HW224240   2.240   0.531   5.784
 6465SOL     OW24241   2.021   1.137   7.052
 6465SOL    HW124242   2.043   1.076   7.128
 6465SOL    HW224243   2.031   1.088   6.966
 6466SOL     OW24244   3.209   1.059   6.820
 6466SOL    HW124245   3.233   0.996   6.746
 6466SOL    HW224246   3.119   1.099   6.802
 6467SOL     OW24247   3.164   0.855   5.895
 6467SOL    HW124248   3.078   0.824   5.937
 6467SOL    HW224249   3.160   0.841   5.796
 6468SOL     OW24250   1.945   1.258   6.608
 6468SOL    HW124251   1.940   1.257   6.708
 6468SOL    HW224252   1.862   1.217   6.570
 6469SOL     OW24253   2.550   1.662   7.302
 6469SOL    HW124254   2.494   1.743   7.311
 6469SOL    HW224255   2.602   1.666   7.216
 6470SOL     OW24256   3.588   0.135   6.109
 6470SOL    HW124257   3.661   0.118   6.042
 6470SOL    HW224258   3.557   0.048   6.147
 6471SOL     OW24259   3.250   1.573   6.063
 6471SOL    HW124260   3.317   1.585   5.989
 6471SOL    HW224261   3.210   1.662   6.086
 6472SOL     OW24262   3.142   0.927   6.258
 6472SOL    HW124263   3.202   0.846   6.260
 6472SOL    HW224264   3.182   0.996   6.198
 6473SOL     OW24265   2.692   1.273   7.008
 6473SOL    HW124266   2.687   1.306   7.103
 6473SOL    HW224267   2.606   1.292   6.962
 6474SOL     OW24268   2.534   1.616   5.740
 6474SOL    HW124269   2.543   1.626   5.641
 6474SOL    HW224270   2.494   1.527   5.761
 6475SOL     OW24271   3.703   0.175   6.549
 6475SOL    HW124272   3.742   0.090   6.513
 6475SOL    HW224273   3.605   0.177   6.530
 6476SOL     OW24274   3.056   1.612   5.617
 6476SOL    HW124275   3.062   1.519   5.654
 6476SOL    HW224276   2.997   1.612   5.537
 6477SOL     OW24277   2.684   1.002   6.958
 6477SOL    HW124278   2.724   1.001   6.866
 6477SOL    HW224279   2.694   1.094   6.998
 6478SOL     OW24280   2.778   0.910   5.877
 6478SOL    HW124281   2.841   0.948   5.809
 6478SOL    HW224282   2.818   0.827   5.916
 6479SOL     OW24283   3.366   1.607   5.630
 6479SOL    HW124284   3.274   1.644   5.637
 6479SOL    HW224285   3.404   1.627   5.540
 6480SOL     OW24286   2.234   1.288   7.076
 6480SOL    HW124287   2.221   1.381   7.042
 6480SOL    HW224288   2.150   1.236   7.063
 6481SOL     OW24289   3.476   1.292   6.875
 6481SOL    HW124290   3.536   1.295   6.955
 6481SOL    HW224291   3.401   1.356   6.888
 6482SOL     OW24292   2.901   1.098   6.282
 6482SOL    HW124293   2.831   1.051   6.336
 6482SOL    HW224294   2.960   1.030   6.239
 6483SOL     OW24295   2.876   0.236   6.557
 6483SOL    HW124296   2.868   0.200   6.464
 6483SOL    HW224297   2.874   0.160   6.622
 6484SOL     OW24298   2.452   1.487   6.077
 6484SOL    HW124299   2.494   1.429   6.007
 6484SOL    HW224300   2.408   1.566   6.033
 6485SOL     OW24301   3.571   0.385   6.967
 6485SOL    HW124302   3.644   0.454   6.971
 6485SOL    HW224303   3.599   0.310   6.908
 6486SOL     OW24304   2.117   1.348   5.876
 6486SOL    HW124305   2.021   1.349   5.849
 6486SOL    HW224306   2.129   1.401   5.960
 6487SOL     OW24307   1.967   1.013   7.312
 6487SOL    HW124308   1.890   0.980   7.366
 6487SOL    HW224309   2.052   0.983   7.354
 6488SOL     OW24310   2.534   0.203   7.075
 6488SOL    HW124311   2.624   0.187   7.035
 6488SOL    HW224312   2.542   0.208   7.174
 6489SOL     OW24313   1.937   0.345   5.619
 6489SOL    HW124314   1.845   0.317   5.590
 6489SOL    HW224315   1.968   0.422   5.563
 6490SOL     OW24316   3.302   0.856   6.984
 6490SOL    HW124317   3.245   0.908   6.921
 6490SOL    HW224318   3.398   0.868   6.960
 6491SOL     OW24319   1.934   0.166   5.904
 6491SOL    HW124320   1.917   0.249   5.850
 6491SOL    HW224321   2.024   0.129   5.882
 6492SOL     OW24322   3.045   1.335   5.705
 6492SOL    HW124323   2.946   1.324   5.707
 6492SOL    HW224324   3.079   1.350   5.798
 6493SOL     OW24325   2.475   0.842   7.017
 6493SOL    HW124326   2.531   0.923   7.000
 6493SOL    HW224327   2.534   0.762   7.020
 6494SOL     OW24328   2.578   0.565   7.294
 6494SOL    HW124329   2.597   0.630   7.368
 6494SOL    HW224330   2.638   0.485   7.303
 6495SOL     OW24331   3.312   1.220   7.219
 6495SOL    HW124332   3.303   1.210   7.318
 6495SOL    HW224333   3.408   1.213   7.193
 6496SOL     OW24334   2.252   1.741   7.146
 6496SOL    HW124335   2.161   1.782   7.144
 6496SOL    HW224336   2.245   1.647   7.178
 6497SOL     OW24337   3.536   0.883   6.840
 6497SOL    HW124338   3.509   0.794   6.803
 6497SOL    HW224339   3.537   0.951   6.767
 6498SOL     OW24340   3.087   0.325   6.035
 6498SOL    HW124341   3.152   0.251   6.024
 6498SOL    HW224342   3.107   0.375   6.119
 6499SOL     OW24343   2.456   0.745   6.238
 6499SOL    HW124344   2.506   0.830   6.219
 6499SOL    HW224345   2.368   0.747   6.190
 6500SOL     OW24346   3.639   0.342   7.228
 6500SOL    HW124347   3.622   0.373   7.134
 6500SOL    HW224348   3.555   0.305   7.266
 6501SOL     OW24349   3.592   0.934   7.103
 6501SOL    HW124350   3.630   1.025   7.118
 6501SOL    HW224351   3.584   0.917   7.004
 6502SOL     OW24352   2.721   1.374   5.602
 6502SOL    HW124353   2.675   1.389   5.690
 6502SOL    HW224354   2.765   1.459   5.572
 6503SOL     OW24355   2.523   1.790   6.539
 6503SOL    HW124356   2.477   1.878   6.526
 6503SOL    HW224357   2.622   1.802   6.532
 6504SOL     OW24358   2.721   0.956   6.447
 6504SOL    HW124359   2.775   0.887   6.495
 6504SOL    HW224360   2.689   1.025   6.513
 6505SOL     OW24361   2.945   0.984   5.673
 6505SOL    HW124362   2.922   1.037   5.591
 6505SOL    HW224363   3.026   0.928   5.654
 6506SOL     OW24364   3.723   1.569   6.437
 6506SOL    HW124365   3.652   1.557   6.367
 6506SOL    HW224366   3.724   1.490   6.497
 6507SOL     OW24367   2.083   1.314   7.430
 6507SOL    HW124368   2.018   1.241   7.409
 6507SOL    HW224369   2.087   1.328   7.528
 6508SOL     OW24370   1.941   1.240   6.239
 6508SOL    HW124371   1.940   1.193   6.327
 6508SOL    HW224372   2.023   1.212   6.188
 6509SOL     OW24373   2.534   1.391   7.210
 6509SOL    HW124374   2.456   1.341   7.248
 6509SOL    HW224375   2.531   1.486   7.241
 6510SOL     OW24376   3.567   1.487   6.690
 6510SOL    HW124377   3.474   1.462   6.663
 6510SOL    HW224378   3.593   1.437   6.772
 6511SOL     OW24379   2.179   0.547   6.866
 6511SOL    HW124380   2.217   0.488   6.938
 6511SOL    HW224381   2.219   0.521   6.778
 6512SOL     OW24382   2.674   1.586   6.273
 6512SOL    HW124383   2.706   1.596   6.179
 6512SOL    HW224384   2.595   1.524   6.275
 6513SOL     OW24385   3.286   0.214   6.698
 6513SOL    HW124386   3.338   0.149   6.753
 6513SOL    HW224387   3.237   0.277   6.759
 6514SOL     OW24388   2.863   0.034   6.740
 6514SOL    HW124389   2.800  -0.038   6.709
 6514SOL    HW224390   2.956  -0.002   6.740
 6515SOL     OW24391   2.632   1.330   5.887
 6515SOL    HW124392   2.586   1.243   5.904
 6515SOL    HW224393   2.723   1.327   5.928
 6516SOL     OW24394   2.480   1.567   6.870
 6516SOL    HW124395   2.475   1.649   6.927
 6516SOL    HW224396   2.569   1.564   6.825
 6517SOL     OW24397   3.214   0.052   5.754
 6517SOL    HW124398   3.249   0.011   5.670
 6517SOL    HW224399   3.124   0.014   5.774
 6518SOL     OW24400   3.162   0.453   6.277
 6518SOL    HW124401   3.103   0.533   6.281
 6518SOL    HW224402   3.177   0.418   6.370
 6519SOL     OW24403   3.455   0.221   6.468
 6519SOL    HW124404   3.371   0.220   6.522
 6519SOL    HW224405   3.457   0.304   6.412
 6520SOL     OW24406   1.901   1.077   5.886
 6520SOL    HW124407   2.000   1.066   5.877
 6520SOL    HW224408   1.861   0.991   5.918
 6521SOL     OW24409   2.737   1.646   5.923
 6521SOL    HW124410   2.660   1.611   5.869
 6521SOL    HW224411   2.705   1.717   5.985
 6522SOL     OW24412   2.092   0.628   7.561
 6522SOL    HW124413   1.999   0.626   7.598
 6522SOL    HW224414   2.093   0.589   7.469
 6523SOL     OW24415   2.087   0.275   8.444
 6523SOL    HW124416   2.122   0.258   8.536
 6523SOL    HW224417   1.999   0.230   8.432
 6524SOL     OW24418   1.881   0.368   8.095
 6524SOL    HW124419   1.799   0.411   8.134
 6524SOL    HW224420   1.853   0.295   8.032
 6525SOL     OW24421   3.417   1.511   8.151
 6525SOL    HW124422   3.360   1.495   8.232
 6525SOL    HW224423   3.358   1.521   8.071
 6526SOL     OW24424   2.997   0.703   8.165
 6526SOL    HW124425   3.054   0.781   8.140
 6526SOL    HW224426   2.937   0.729   8.241
 6527SOL     OW24427   3.617   0.607   7.679
 6527SOL    HW124428   3.605   0.594   7.580
 6527SOL    HW224429   3.587   0.526   7.728
 6528SOL     OW24430   2.712   0.798   9.271
 6528SOL    HW124431   2.708   0.874   9.336
 6528SOL    HW224432   2.734   0.834   9.180
 6529SOL     OW24433   2.547   1.012   8.113
 6529SOL    HW124434   2.616   0.996   8.183
 6529SOL    HW224435   2.474   1.069   8.151
 6530SOL     OW24436   2.548   1.161   9.251
 6530SOL    HW124437   2.608   1.240   9.265
 6530SOL    HW224438   2.462   1.192   9.210
 6531SOL     OW24439   3.322   1.505   8.787
 6531SOL    HW124440   3.346   1.599   8.813
 6531SOL    HW224441   3.306   1.451   8.869
 6532SOL     OW24442   2.300   0.392   8.947
 6532SOL    HW124443   2.382   0.336   8.956
 6532SOL    HW224444   2.219   0.334   8.951
 6533SOL     OW24445   3.465   0.447   8.185
 6533SOL    HW124446   3.391   0.493   8.135
 6533SOL    HW224447   3.516   0.515   8.238
 6534SOL     OW24448   2.093   1.713   7.931
 6534SOL    HW124449   2.127   1.790   7.985
 6534SOL    HW224450   2.137   1.713   7.841
 6535SOL     OW24451   2.989   1.341   9.138
 6535SOL    HW124452   3.036   1.341   9.226
 6535SOL    HW224453   2.941   1.254   9.127
 6536SOL     OW24454   2.092   1.434   7.986
 6536SOL    HW124455   2.066   1.530   7.986
 6536SOL    HW224456   2.021   1.380   8.031
 6537SOL     OW24457   2.482   1.786   8.887
 6537SOL    HW124458   2.390   1.769   8.922
 6537SOL    HW224459   2.510   1.878   8.913
 6538SOL     OW24460   2.468   0.964   7.571
 6538SOL    HW124461   2.475   1.048   7.517
 6538SOL    HW224462   2.514   0.977   7.659
 6539SOL     OW24463   3.456   0.114   8.928
 6539SOL    HW124464   3.438   0.181   8.856
 6539SOL    HW224465   3.453   0.160   9.017
 6540SOL     OW24466   1.984   0.643   8.011
 6540SOL    HW124467   1.939   0.555   8.028
 6540SOL    HW224468   1.983   0.697   8.095
 6541SOL     OW24469   3.704   1.767   7.807
 6541SOL    HW124470   3.758   1.738   7.887
 6541SOL    HW224471   3.734   1.857   7.778
 6542SOL     OW24472   1.889   1.596   7.565
 6542SOL    HW124473   1.870   1.500   7.586
 6542SOL    HW224474   1.856   1.654   7.640
 6543SOL     OW24475   3.551   0.922   8.060
 6543SOL    HW124476   3.646   0.893   8.068
 6543SOL    HW224477   3.543   0.987   7.985
 6544SOL     OW24478   3.503   1.108   7.880
 6544SOL    HW124479   3.589   1.110   7.828
 6544SOL    HW224480   3.517   1.155   7.968
 6545SOL     OW24481   1.975   0.737   9.045
 6545SOL    HW124482   2.063   0.724   9.090
 6545SOL    HW224483   1.962   0.834   9.023
 6546SOL     OW24484   2.475   1.365   8.174
 6546SOL    HW124485   2.426   1.278   8.183
 6546SOL    HW224486   2.452   1.408   8.087
 6547SOL     OW24487   3.155   1.228   8.871
 6547SOL    HW124488   3.192   1.155   8.813
 6547SOL    HW224489   3.207   1.233   8.956
 6548SOL     OW24490   2.671   0.004   7.950
 6548SOL    HW124491   2.711   0.095   7.941
 6548SOL    HW224492   2.571   0.012   7.956
 6549SOL     OW24493   3.387   0.999   7.638
 6549SOL    HW124494   3.324   0.923   7.651
 6549SOL    HW224495   3.435   1.017   7.724
 6550SOL     OW24496   3.049   1.792   9.064
 6550SOL    HW124497   3.073   1.852   8.988
 6550SOL    HW224498   3.056   1.697   9.034
 6551SOL     OW24499   2.179   0.251   9.249
 6551SOL    HW124500   2.250   0.322   9.255
 6551SOL    HW224501   2.091   0.290   9.277
 6552SOL     OW24502   3.328   1.417   8.401
 6552SOL    HW124503   3.269   1.423   8.481
 6552SOL    HW224504   3.313   1.329   8.355
 6553SOL     OW24505   3.529   1.714   8.020
 6553SOL    HW124506   3.488   1.691   7.932
 6553SOL    HW224507   3.511   1.640   8.085
 6554SOL     OW24508   2.460   0.729   7.718
 6554SOL    HW124509   2.484   0.798   7.650
 6554SOL    HW224510   2.382   0.762   7.772
 6555SOL     OW24511   3.143   0.345   8.392
 6555SOL    HW124512   3.057   0.295   8.379
 6555SOL    HW224513   3.205   0.291   8.448
 6556SOL     OW24514   3.438   1.662   7.755
 6556SOL    HW124515   3.527   1.708   7.758
 6556SOL    HW224516   3.417   1.638   7.660
 6557SOL     OW24517   2.669   0.605   8.913
 6557SOL    HW124518   2.622   0.602   9.002
 6557SOL    HW224519   2.618   0.550   8.847
 6558SOL     OW24520   2.835   0.890   9.020
 6558SOL    HW124521   2.881   0.806   8.991
 6558SOL    HW224522   2.779   0.924   8.945
 6559SOL     OW24523   2.853   0.410   8.690
 6559SOL    HW124524   2.776   0.444   8.744
 6559SOL    HW224525   2.819   0.359   8.611
 6560SOL     OW24526   2.903   0.701   7.877
 6560SOL    HW124527   2.929   0.697   7.973
 6560SOL    HW224528   2.818   0.650   7.863
 6561SOL     OW24529   2.727   0.348   7.643
 6561SOL    HW124530   2.786   0.411   7.594
 6561SOL    HW224531   2.746   0.254   7.614
 6562SOL     OW24532   3.224   1.144   7.993
 6562SOL    HW124533   3.307   1.115   7.945
 6562SOL    HW224534   3.175   1.211   7.937
 6563SOL     OW24535   2.412   0.196   8.333
 6563SOL    HW124536   2.407   0.191   8.433
 6563SOL    HW224537   2.414   0.292   8.304
 6564SOL     OW24538   2.870   1.456   7.925
 6564SOL    HW124539   2.824   1.528   7.873
 6564SOL    HW224540   2.866   1.476   8.023
 6565SOL     OW24541   2.213   1.801   8.301
 6565SOL    HW124542   2.263   1.715   8.307
 6565SOL    HW224543   2.278   1.878   8.298
 6566SOL     OW24544   3.657   1.066   8.321
 6566SOL    HW124545   3.595   1.051   8.245
 6566SOL    HW224546   3.605   1.077   8.406
 6567SOL     OW24547   3.089   1.550   8.954
 6567SOL    HW124548   3.095   1.473   9.018
 6567SOL    HW224549   3.037   1.524   8.874
 6568SOL     OW24550   2.183   0.943   7.690
 6568SOL    HW124551   2.265   0.982   7.648
 6568SOL    HW224552   2.156   0.861   7.641
 6569SOL     OW24553   3.320   0.735   8.176
 6569SOL    HW124554   3.315   0.670   8.251
 6569SOL    HW224555   3.400   0.794   8.189
 6570SOL     OW24556   2.323   1.266   9.175
 6570SOL    HW124557   2.273   1.267   9.089
 6570SOL    HW224558   2.260   1.248   9.251
 6571SOL     OW24559   2.973   1.776   7.685
 6571SOL    HW124560   2.913   1.714   7.735
 6571SOL    HW224561   3.004   1.732   7.600
 6572SOL     OW24562   2.064   0.285   8.946
 6572SOL    HW124563   1.984   0.345   8.933
 6572SOL    HW224564   2.054   0.236   9.032
 6573SOL     OW24565   3.494   1.377   7.529
 6573SOL    HW124566   3.462   1.471   7.519
 6573SOL    HW224567   3.418   1.314   7.517
 6574SOL     OW24568   2.326   1.743   7.771
 6574SOL    HW124569   2.359   1.782   7.857
 6574SOL    HW224570   2.402   1.736   7.706
 6575SOL     OW24571   3.262   0.107   7.874
 6575SOL    HW124572   3.238   0.070   7.784
 6575SOL    HW224573   3.361   0.123   7.878
 6576SOL     OW24574   2.244   0.700   7.928
 6576SOL    HW124575   2.289   0.610   7.925
 6576SOL    HW224576   2.150   0.689   7.961
 6577SOL     OW24577   3.409   0.222   9.177
 6577SOL    HW124578   3.404   0.259   9.269
 6577SOL    HW224579   3.337   0.153   9.165
 6578SOL     OW24580   2.476   0.122   7.565
 6578SOL    HW124581   2.574   0.100   7.572
 6578SOL    HW224582   2.445   0.105   7.472
 6579SOL     OW24583   2.643   0.264   9.197
 6579SOL    HW124584   2.710   0.203   9.240
 6579SOL    HW224585   2.570   0.283   9.262
 6580SOL     OW24586   2.750   1.514   8.643
 6580SOL    HW124587   2.727   1.489   8.549
 6580SOL    HW224588   2.811   1.445   8.682
 6581SOL     OW24589   3.213   0.590   8.881
 6581SOL    HW124590   3.241   0.547   8.966
 6581SOL    HW224591   3.238   0.686   8.882
 6582SOL     OW24592   2.665   1.402   8.372
 6582SOL    HW124593   2.755   1.416   8.330
 6582SOL    HW224594   2.594   1.404   8.301
 6583SOL     OW24595   2.784   0.503   8.347
 6583SOL    HW124596   2.759   0.494   8.251
 6583SOL    HW224597   2.832   0.421   8.378
 6584SOL     OW24598   2.401   0.064   7.960
 6584SOL    HW124599   2.320   0.065   8.018
 6584SOL    HW224600   2.404   0.147   7.905
 6585SOL     OW24601   3.296   1.188   7.489
 6585SOL    HW124602   3.328   1.112   7.546
 6585SOL    HW224603   3.204   1.215   7.519
 6586SOL     OW24604   2.159   0.035   7.619
 6586SOL    HW124605   2.208   0.119   7.598
 6586SOL    HW224606   2.221  -0.030   7.664
 6587SOL     OW24607   2.797   0.236   7.928
 6587SOL    HW124608   2.749   0.277   7.850
 6587SOL    HW224609   2.896   0.234   7.909
 6588SOL     OW24610   2.938   0.683   8.912
 6588SOL    HW124611   2.858   0.622   8.915
 6588SOL    HW224612   3.019   0.630   8.888
 6589SOL     OW24613   3.089   1.570   8.241
 6589SOL    HW124614   3.110   1.644   8.176
 6589SOL    HW224615   3.157   1.570   8.314
 6590SOL     OW24616   2.321   1.152   8.189
 6590SOL    HW124617   2.250   1.125   8.254
 6590SOL    HW224618   2.295   1.124   8.096
 6591SOL     OW24619   3.133   1.797   8.039
 6591SOL    HW124620   3.177   1.861   7.975
 6591SOL    HW224621   3.083   1.849   8.109
 6592SOL     OW24622   2.894   0.549   7.464
 6592SOL    HW124623   2.853   0.631   7.425
 6592SOL    HW224624   2.958   0.575   7.537
 6593SOL     OW24625   1.940   0.556   8.834
 6593SOL    HW124626   2.032   0.555   8.793
 6593SOL    HW224627   1.934   0.630   8.901
 6594SOL     OW24628   2.423   0.222   8.595
 6594SOL    HW124629   2.461   0.138   8.632
 6594SOL    HW224630   2.335   0.241   8.639
 6595SOL     OW24631   2.728   0.454   8.090
 6595SOL    HW124632   2.696   0.526   8.028
 6595SOL    HW224633   2.752   0.373   8.037
 6596SOL     OW24634   2.879   0.039   8.201
 6596SOL    HW124635   2.807   0.044   8.132
 6596SOL    HW224636   2.855  -0.030   8.270
 6597SOL     OW24637   3.291   1.173   8.315
 6597SOL    HW124638   3.236   1.089   8.308
 6597SOL    HW224639   3.317   1.202   8.223
 6598SOL     OW24640   3.328   0.590   8.440
 6598SOL    HW124641   3.298   0.495   8.447
 6598SOL    HW224642   3.401   0.606   8.506
 6599SOL     OW24643   3.719   0.833   7.825
 6599SOL    HW124644   3.761   0.769   7.889
 6599SOL    HW224645   3.681   0.782   7.747
 6600SOL     OW24646   2.350   1.385   7.622
 6600SOL    HW124647   2.263   1.370   7.669
 6600SOL    HW224648   2.333   1.411   7.527
 6601SOL     OW24649   3.526   1.280   8.105
 6601SOL    HW124650   3.625   1.288   8.119
 6601SOL    HW224651   3.481   1.364   8.136
 6602SOL     OW24652   3.252   0.575   7.526
 6602SOL    HW124653   3.198   0.554   7.607
 6602SOL    HW224654   3.343   0.534   7.535
 6603SOL     OW24655   2.389   0.256   7.776
 6603SOL    HW124656   2.416   0.197   7.701
 6603SOL    HW224657   2.389   0.351   7.745
 6604SOL     OW24658   3.616   1.223   9.036
 6604SOL    HW124659   3.707   1.184   9.023
 6604SOL    HW224660   3.624   1.319   9.060
 6605SOL     OW24661   2.926   1.347   8.788
 6605SOL    HW124662   2.846   1.324   8.843
 6605SOL    HW224663   3.009   1.321   8.837
 6606SOL     OW24664   3.454   1.629   9.073
 6606SOL    HW124665   3.481   1.663   8.983
 6606SOL    HW224666   3.533   1.591   9.119
 6607SOL     OW24667   2.973   1.195   8.548
 6607SOL    HW124668   2.933   1.239   8.629
 6607SOL    HW224669   2.932   1.232   8.465
 6608SOL     OW24670   3.500   1.099   8.527
 6608SOL    HW124671   3.505   1.180   8.586
 6608SOL    HW224672   3.414   1.101   8.476
 6609SOL     OW24673   2.777   0.089   8.850
 6609SOL    HW124674   2.802   0.069   8.755
 6609SOL    HW224675   2.849   0.145   8.892
 6610SOL     OW24676   2.842   1.116   9.167
 6610SOL    HW124677   2.743   1.122   9.177
 6610SOL    HW224678   2.865   1.036   9.111
 6611SOL     OW24679   2.567   1.050   7.816
 6611SOL    HW124680   2.553   1.057   7.915
 6611SOL    HW224681   2.651   0.999   7.798
 6612SOL     OW24682   2.272   0.813   8.699
 6612SOL    HW124683   2.358   0.825   8.749
 6612SOL    HW224684   2.230   0.726   8.726
 6613SOL     OW24685   3.136   0.386   8.710
 6613SOL    HW124686   3.157   0.460   8.774
 6613SOL    HW224687   3.047   0.403   8.667
 6614SOL     OW24688   2.229   1.100   7.949
 6614SOL    HW124689   2.222   1.183   7.893
 6614SOL    HW224690   2.233   1.020   7.889
 6615SOL     OW24691   2.428   0.537   8.313
 6615SOL    HW124692   2.440   0.603   8.239
 6615SOL    HW224693   2.474   0.571   8.396
 6616SOL     OW24694   3.114   1.348   7.836
 6616SOL    HW124695   3.164   1.425   7.876
 6616SOL    HW224696   3.019   1.350   7.868
 6617SOL     OW24697   3.134   1.445   8.590
 6617SOL    HW124698   3.181   1.458   8.677
 6617SOL    HW224699   3.068   1.371   8.599
 6618SOL     OW24700   3.444   0.639   7.920
 6618SOL    HW124701   3.413   0.700   7.993
 6618SOL    HW224702   3.494   0.691   7.851
 6619SOL     OW24703   2.264   0.751   9.046
 6619SOL    HW124704   2.332   0.806   8.999
 6619SOL    HW224705   2.304   0.663   9.073
 6620SOL     OW24706   2.875   0.105   9.218
 6620SOL    HW124707   2.881   0.190   9.166
 6620SOL    HW224708   2.907   0.029   9.161
 6621SOL     OW24709   2.366   0.050   9.188
 6621SOL    HW124710   2.324  -0.007   9.118
 6621SOL    HW224711   2.300   0.119   9.220
 6622SOL     OW24712   3.222   0.862   8.493
 6622SOL    HW124713   3.147   0.862   8.427
 6622SOL    HW224714   3.259   0.770   8.502
 6623SOL     OW24715   3.071   0.525   7.723
 6623SOL    HW124716   3.084   0.441   7.777
 6623SOL    HW224717   3.042   0.599   7.783
 6624SOL     OW24718   2.169   0.213   8.679
 6624SOL    HW124719   2.146   0.250   8.769
 6624SOL    HW224720   2.139   0.118   8.673
 6625SOL     OW24721   1.899   1.310   8.730
 6625SOL    HW124722   1.952   1.261   8.798
 6625SOL    HW224723   1.921   1.408   8.735
 6626SOL     OW24724   2.169   0.063   8.066
 6626SOL    HW124725   2.158   0.157   8.099
 6626SOL    HW224726   2.164   0.000   8.143
 6627SOL     OW24727   3.484   0.367   7.822
 6627SOL    HW124728   3.486   0.291   7.886
 6627SOL    HW224729   3.436   0.444   7.862
 6628SOL     OW24730   2.885   0.766   8.414
 6628SOL    HW124731   2.900   0.787   8.510
 6628SOL    HW224732   2.855   0.671   8.405
 6629SOL     OW24733   2.842   1.573   9.148
 6629SOL    HW124734   2.822   1.617   9.060
 6629SOL    HW224735   2.881   1.482   9.132
 6630SOL     OW24736   3.721   1.518   9.053
 6630SOL    HW124737   3.735   1.545   8.958
 6630SOL    HW224738   3.804   1.540   9.106
 6631SOL     OW24739   2.212   0.898   9.252
 6631SOL    HW124740   2.288   0.942   9.300
 6631SOL    HW224741   2.247   0.851   9.170
 6632SOL     OW24742   3.402   0.274   7.573
 6632SOL    HW124743   3.341   0.199   7.596
 6632SOL    HW224744   3.424   0.326   7.656
 6633SOL     OW24745   3.165   0.838   7.490
 6633SOL    HW124746   3.199   0.745   7.505
 6633SOL    HW224747   3.183   0.865   7.395
 6634SOL     OW24748   2.930   1.333   8.297
 6634SOL    HW124749   2.937   1.249   8.242
 6634SOL    HW224750   2.992   1.402   8.261
 6635SOL     OW24751   2.201   0.509   8.454
 6635SOL    HW124752   2.149   0.426   8.437
 6635SOL    HW224753   2.278   0.514   8.390
 6636SOL     OW24754   3.000   0.380   9.126
 6636SOL    HW124755   2.955   0.443   9.190
 6636SOL    HW224756   3.093   0.411   9.109
 6637SOL     OW24757   3.022   0.207   8.925
 6637SOL    HW124758   3.022   0.271   9.002
 6637SOL    HW224759   3.050   0.255   8.842
 6638SOL     OW24760   1.870   1.326   7.648
 6638SOL    HW124761   1.777   1.347   7.617
 6638SOL    HW224762   1.880   1.227   7.661
 6639SOL     OW24763   1.950   1.801   8.375
 6639SOL    HW124764   1.908   1.715   8.348
 6639SOL    HW224765   2.044   1.804   8.341
 6640SOL     OW24766   2.366   1.568   8.358
 6640SOL    HW124767   2.432   1.642   8.367
 6640SOL    HW224768   2.410   1.489   8.316
 6641SOL     OW24769   1.902   0.544   8.562
 6641SOL    HW124770   1.987   0.511   8.521
 6641SOL    HW224771   1.915   0.559   8.660
 6642SOL     OW24772   2.051   0.520   9.170
 6642SOL    HW124773   2.110   0.480   9.100
 6642SOL    HW224774   1.993   0.591   9.129
 6643SOL     OW24775   2.677   0.572   7.773
 6643SOL    HW124776   2.684   0.483   7.727
 6643SOL    HW224777   2.583   0.606   7.765
 6644SOL     OW24778   3.519   0.604   8.654
 6644SOL    HW124779   3.481   0.535   8.716
 6644SOL    HW224780   3.601   0.568   8.610
 6645SOL     OW24781   2.114   1.564   9.192
 6645SOL    HW124782   2.084   1.621   9.268
 6645SOL    HW224783   2.107   1.467   9.218
 6646SOL     OW24784   2.533   0.464   8.717
 6646SOL    HW124785   2.499   0.375   8.687
 6646SOL    HW224786   2.559   0.518   8.637
 6647SOL     OW24787   2.792   1.678   8.913
 6647SOL    HW124788   2.768   1.660   8.818
 6647SOL    HW224789   2.822   1.772   8.923
 6648SOL     OW24790   2.335   0.500   7.639
 6648SOL    HW124791   2.396   0.580   7.643
 6648SOL    HW224792   2.240   0.531   7.646
 6649SOL     OW24793   2.021   1.137   8.914
 6649SOL    HW124794   2.043   1.076   8.990
 6649SOL    HW224795   2.031   1.088   8.828
 6650SOL     OW24796   3.209   1.059   8.682
 6650SOL    HW124797   3.233   0.996   8.608
 6650SOL    HW224798   3.119   1.099   8.664
 6651SOL     OW24799   3.621   1.747   8.602
 6651SOL    HW124800   3.682   1.777   8.529
 6651SOL    HW224801   3.583   1.658   8.580
 6652SOL     OW24802   3.114   1.731   8.576
 6652SOL    HW124803   3.198   1.736   8.522
 6652SOL    HW224804   3.091   1.635   8.594
 6653SOL     OW24805   2.550   1.662   9.164
 6653SOL    HW124806   2.494   1.743   9.173
 6653SOL    HW224807   2.602   1.666   9.078
 6654SOL     OW24808   3.588   0.135   7.971
 6654SOL    HW124809   3.661   0.118   7.904
 6654SOL    HW224810   3.557   0.048   8.009
 6655SOL     OW24811   3.250   1.573   7.925
 6655SOL    HW124812   3.317   1.585   7.851
 6655SOL    HW224813   3.210   1.662   7.948
 6656SOL     OW24814   1.992   1.794   9.299
 6656SOL    HW124815   1.951   1.720   9.352
 6656SOL    HW224816   2.056   1.845   9.357
 6657SOL     OW24817   3.142   0.927   8.120
 6657SOL    HW124818   3.202   0.846   8.122
 6657SOL    HW224819   3.182   0.996   8.060
 6658SOL     OW24820   2.692   1.273   8.870
 6658SOL    HW124821   2.687   1.306   8.965
 6658SOL    HW224822   2.606   1.292   8.824
 6659SOL     OW24823   2.534   1.616   7.602
 6659SOL    HW124824   2.543   1.626   7.503
 6659SOL    HW224825   2.494   1.527   7.623
 6660SOL     OW24826   3.512   1.720   8.842
 6660SOL    HW124827   3.565   1.730   8.758
 6660SOL    HW224828   3.485   1.810   8.876
 6661SOL     OW24829   3.703   0.175   8.411
 6661SOL    HW124830   3.742   0.090   8.375
 6661SOL    HW224831   3.605   0.177   8.392
 6662SOL     OW24832   2.125   0.326   8.168
 6662SOL    HW124833   2.046   0.377   8.134
 6662SOL    HW224834   2.116   0.311   8.266
 6663SOL     OW24835   3.056   1.612   7.479
 6663SOL    HW124836   3.062   1.519   7.516
 6663SOL    HW224837   2.997   1.612   7.399
 6664SOL     OW24838   2.778   0.910   7.739
 6664SOL    HW124839   2.841   0.948   7.671
 6664SOL    HW224840   2.818   0.827   7.778
 6665SOL     OW24841   3.366   1.607   7.492
 6665SOL    HW124842   3.274   1.644   7.499
 6665SOL    HW224843   3.404   1.627   7.402
 6666SOL     OW24844   2.234   1.288   8.938
 6666SOL    HW124845   2.221   1.381   8.904
 6666SOL    HW224846   2.150   1.236   8.925
 6667SOL     OW24847   3.476   1.292   8.737
 6667SOL    HW124848   3.536   1.295   8.817
 6667SOL    HW224849   3.401   1.356   8.750
 6668SOL     OW24850   2.901   1.098   8.144
 6668SOL    HW124851   2.831   1.051   8.198
 6668SOL    HW224852   2.960   1.030   8.101
 6669SOL     OW24853   2.876   0.236   8.419
 6669SOL    HW124854   2.868   0.200   8.326
 6669SOL    HW224855   2.874   0.160   8.484
 6670SOL     OW24856   2.452   1.487   7.939
 6670SOL    HW124857   2.494   1.429   7.869
 6670SOL    HW224858   2.408   1.566   7.895
 6671SOL     OW24859   3.571   0.385   8.829
 6671SOL    HW124860   3.644   0.454   8.833
 6671SOL    HW224861   3.599   0.310   8.770
 6672SOL     OW24862   2.117   1.348   7.738
 6672SOL    HW124863   2.021   1.349   7.711
 6672SOL    HW224864   2.129   1.401   7.822
 6673SOL     OW24865   1.967   1.013   9.174
 6673SOL    HW124866   1.890   0.980   9.228
 6673SOL    HW224867   2.052   0.983   9.216
 6674SOL     OW24868   2.534   0.203   8.937
 6674SOL    HW124869   2.624   0.187   8.897
 6674SOL    HW224870   2.542   0.208   9.036
 6675SOL     OW24871   3.302   0.856   8.846
 6675SOL    HW124872   3.245   0.908   8.783
 6675SOL    HW224873   3.398   0.868   8.822
 6676SOL     OW24874   1.934   0.166   7.766
 6676SOL    HW124875   1.917   0.249   7.712
 6676SOL    HW224876   2.024   0.129   7.744
 6677SOL     OW24877   3.045   1.335   7.567
 6677SOL    HW124878   2.946   1.324   7.569
 6677SOL    HW224879   3.079   1.350   7.660
 6678SOL     OW24880   2.475   0.842   8.879
 6678SOL    HW124881   2.531   0.923   8.862
 6678SOL    HW224882   2.534   0.762   8.882
 6679SOL     OW24883   3.355   1.767   8.407
 6679SOL    HW124884   3.388   1.831   8.338
 6679SOL    HW224885   3.421   1.761   8.482
 6680SOL     OW24886   2.578   0.565   9.156
 6680SOL    HW124887   2.597   0.630   9.230
 6680SOL    HW224888   2.638   0.485   9.165
 6681SOL     OW24889   3.312   1.220   9.081
 6681SOL    HW124890   3.303   1.210   9.180
 6681SOL    HW224891   3.408   1.213   9.055
 6682SOL     OW24892   2.252   1.741   9.008
 6682SOL    HW124893   2.161   1.782   9.006
 6682SOL    HW224894   2.245   1.647   9.040
 6683SOL     OW24895   3.536   0.883   8.702
 6683SOL    HW124896   3.509   0.794   8.665
 6683SOL    HW224897   3.537   0.951   8.629
 6684SOL     OW24898   3.087   0.325   7.897
 6684SOL    HW124899   3.152   0.251   7.886
 6684SOL    HW224900   3.107   0.375   7.981
 6685SOL     OW24901   2.456   0.745   8.100
 6685SOL    HW124902   2.506   0.830   8.081
 6685SOL    HW224903   2.368   0.747   8.052
 6686SOL     OW24904   3.639   0.342   9.090
 6686SOL    HW124905   3.622   0.373   8.996
 6686SOL    HW224906   3.555   0.305   9.128
 6687SOL     OW24907   3.592   0.934   8.965
 6687SOL    HW124908   3.630   1.025   8.980
 6687SOL    HW224909   3.584   0.917   8.866
 6688SOL     OW24910   2.721   1.374   7.464
 6688SOL    HW124911   2.675   1.389   7.552
 6688SOL    HW224912   2.765   1.459   7.434
 6689SOL     OW24913   2.945   0.984   7.535
 6689SOL    HW124914   2.922   1.037   7.453
 6689SOL    HW224915   3.026   0.928   7.516
 6690SOL     OW24916   3.723   1.569   8.299
 6690SOL    HW124917   3.652   1.557   8.229
 6690SOL    HW224918   3.724   1.490   8.359
 6691SOL     OW24919   2.083   1.314   9.292
 6691SOL    HW124920   2.018   1.241   9.271
 6691SOL    HW224921   2.087   1.328   9.390
 6692SOL     OW24922   2.534   1.391   9.072
 6692SOL    HW124923   2.456   1.341   9.110
 6692SOL    HW224924   2.531   1.486   9.103
 6693SOL     OW24925   3.686   0.192   8.675
 6693SOL    HW124926   3.682   0.102   8.719
 6693SOL    HW224927   3.689   0.181   8.576
 6694SOL     OW24928   2.290   0.424   7.968
 6694SOL    HW124929   2.320   0.352   7.906
 6694SOL    HW224930   2.251   0.384   8.051
 6695SOL     OW24931   3.567   1.487   8.552
 6695SOL    HW124932   3.474   1.462   8.525
 6695SOL    HW224933   3.593   1.437   8.634
 6696SOL     OW24934   2.179   0.547   8.728
 6696SOL    HW124935   2.217   0.488   8.800
 6696SOL    HW224936   2.219   0.521   8.640
 6697SOL     OW24937   2.674   1.586   8.135
 6697SOL    HW124938   2.706   1.596   8.041
 6697SOL    HW224939   2.595   1.524   8.137
 6698SOL     OW24940   3.286   0.214   8.560
 6698SOL    HW124941   3.338   0.149   8.615
 6698SOL    HW224942   3.237   0.277   8.621
 6699SOL     OW24943   2.863   0.034   8.602
 6699SOL    HW124944   2.800  -0.038   8.571
 6699SOL    HW224945   2.956  -0.002   8.602
 6700SOL     OW24946   2.632   1.330   7.749
 6700SOL    HW124947   2.586   1.243   7.766
 6700SOL    HW224948   2.723   1.327   7.790
 6701SOL     OW24949   2.480   1.567   8.732
 6701SOL    HW124950   2.475   1.649   8.789
 6701SOL    HW224951   2.569   1.564   8.687
 6702SOL     OW24952   3.214   0.052   7.616
 6702SOL    HW124953   3.249   0.011   7.532
 6702SOL    HW224954   3.124   0.014   7.636
 6703SOL     OW24955   3.162   0.453   8.139
 6703SOL    HW124956   3.103   0.533   8.143
 6703SOL    HW224957   3.177   0.418   8.232
 6704SOL     OW24958   3.455   0.221   8.330
 6704SOL    HW124959   3.371   0.220   8.384
 6704SOL    HW224960   3.457   0.304   8.274
 6705SOL     OW24961   1.901   1.077   7.748
 6705SOL    HW124962   2.000   1.066   7.739
 6705SOL    HW224963   1.861   0.991   7.780
 6706SOL     OW24964   2.737   1.646   7.785
 6706SOL    HW124965   2.660   1.611   7.731
 6706SOL    HW224966   2.705   1.717   7.847
 6707SOL     OW24967   2.092   0.628   9.423
 6707SOL    HW124968   1.999   0.626   9.460
 6707SOL    HW224969   2.093   0.589   9.331
 6708SOL     OW24970   3.617   0.607   9.541
 6708SOL    HW124971   3.605   0.594   9.442
 6708SOL    HW224972   3.587   0.526   9.590
 6709SOL     OW24973   2.093   1.713   9.793
 6709SOL    HW124974   2.127   1.790   9.847
 6709SOL    HW224975   2.137   1.713   9.703
 6710SOL     OW24976   2.468   0.964   9.433
 6710SOL    HW124977   2.475   1.048   9.379
 6710SOL    HW224978   2.514   0.977   9.521
 6711SOL     OW24979   1.984   0.643   9.873
 6711SOL    HW124980   1.939   0.555   9.890
 6711SOL    HW224981   1.983   0.697   9.957
 6712SOL     OW24982   3.704   1.767   9.669
 6712SOL    HW124983   3.758   1.738   9.749
 6712SOL    HW224984   3.734   1.857   9.640
 6713SOL     OW24985   1.889   1.596   9.427
 6713SOL    HW124986   1.870   1.500   9.448
 6713SOL    HW224987   1.856   1.654   9.502
 6714SOL     OW24988   3.551   0.922   9.922
 6714SOL    HW124989   3.646   0.893   9.930
 6714SOL    HW224990   3.543   0.987   9.847
 6715SOL     OW24991   3.503   1.108   9.742
 6715SOL    HW124992   3.589   1.110   9.690
 6715SOL    HW224993   3.517   1.155   9.830
 6716SOL     OW24994   2.475   1.365  10.036
 6716SOL    HW124995   2.426   1.278  10.045
 6716SOL    HW224996   2.452   1.408   9.949
 6717SOL     OW24997   2.671   0.004   9.812
 6717SOL    HW124998   2.711   0.095   9.803
 6717SOL    HW224999   2.571   0.012   9.818
 6718SOL     OW25000   3.387   0.999   9.500
 6718SOL    HW125001   3.324   0.923   9.513
 6718SOL    HW225002   3.435   1.017   9.586
 6719SOL     OW25003   2.460   0.729   9.580
 6719SOL    HW125004   2.484   0.798   9.512
 6719SOL    HW225005   2.382   0.762   9.634
 6720SOL     OW25006   3.438   1.662   9.617
 6720SOL    HW125007   3.527   1.708   9.620
 6720SOL    HW225008   3.417   1.638   9.522
 6721SOL     OW25009   2.903   0.701   9.739
 6721SOL    HW125010   2.929   0.697   9.835
 6721SOL    HW225011   2.818   0.650   9.725
 6722SOL     OW25012   1.938   0.811  10.099
 6722SOL    HW125013   2.037   0.799  10.108
 6722SOL    HW225014   1.914   0.906  10.120
 6723SOL     OW25015   2.727   0.348   9.505
 6723SOL    HW125016   2.786   0.411   9.456
 6723SOL    HW225017   2.746   0.254   9.476
 6724SOL     OW25018   3.224   1.144   9.855
 6724SOL    HW125019   3.307   1.115   9.807
 6724SOL    HW225020   3.175   1.211   9.799
 6725SOL     OW25021   2.870   1.456   9.787
 6725SOL    HW125022   2.824   1.528   9.735
 6725SOL    HW225023   2.866   1.476   9.885
 6726SOL     OW25024   2.213   1.801  10.163
 6726SOL    HW125025   2.263   1.715  10.169
 6726SOL    HW225026   2.278   1.878  10.160
 6727SOL     OW25027   2.183   0.943   9.552
 6727SOL    HW125028   2.265   0.982   9.510
 6727SOL    HW225029   2.156   0.861   9.503
 6728SOL     OW25030   2.973   1.776   9.547
 6728SOL    HW125031   2.913   1.714   9.597
 6728SOL    HW225032   3.004   1.732   9.462
 6729SOL     OW25033   3.494   1.377   9.391
 6729SOL    HW125034   3.462   1.471   9.381
 6729SOL    HW225035   3.418   1.314   9.379
 6730SOL     OW25036   2.326   1.743   9.633
 6730SOL    HW125037   2.359   1.782   9.719
 6730SOL    HW225038   2.402   1.736   9.568
 6731SOL     OW25039   3.262   0.107   9.736
 6731SOL    HW125040   3.238   0.070   9.646
 6731SOL    HW225041   3.361   0.123   9.740
 6732SOL     OW25042   2.244   0.700   9.790
 6732SOL    HW125043   2.289   0.610   9.787
 6732SOL    HW225044   2.150   0.689   9.823
 6733SOL     OW25045   2.476   0.122   9.427
 6733SOL    HW125046   2.574   0.100   9.434
 6733SOL    HW225047   2.445   0.105   9.334
 6734SOL     OW25048   2.401   0.064   9.822
 6734SOL    HW125049   2.320   0.065   9.880
 6734SOL    HW225050   2.404   0.147   9.767
 6735SOL     OW25051   3.296   1.188   9.351
 6735SOL    HW125052   3.328   1.112   9.408
 6735SOL    HW225053   3.204   1.215   9.381
 6736SOL     OW25054   2.159   0.035   9.481
 6736SOL    HW125055   2.208   0.119   9.460
 6736SOL    HW225056   2.221  -0.030   9.526
 6737SOL     OW25057   2.797   0.236   9.790
 6737SOL    HW125058   2.749   0.277   9.712
 6737SOL    HW225059   2.896   0.234   9.771
 6738SOL     OW25060   3.133   1.797   9.901
 6738SOL    HW125061   3.177   1.861   9.837
 6738SOL    HW225062   3.083   1.849   9.971
 6739SOL     OW25063   2.894   0.549   9.326
 6739SOL    HW125064   2.853   0.631   9.287
 6739SOL    HW225065   2.958   0.575   9.399
 6740SOL     OW25066   2.728   0.454   9.952
 6740SOL    HW125067   2.696   0.526   9.890
 6740SOL    HW225068   2.752   0.373   9.899
 6741SOL     OW25069   2.350   1.385   9.484
 6741SOL    HW125070   2.263   1.370   9.531
 6741SOL    HW225071   2.333   1.411   9.389
 6742SOL     OW25072   3.252   0.575   9.388
 6742SOL    HW125073   3.198   0.554   9.469
 6742SOL    HW225074   3.343   0.534   9.397
 6743SOL     OW25075   2.389   0.256   9.638
 6743SOL    HW125076   2.416   0.197   9.563
 6743SOL    HW225077   2.389   0.351   9.607
 6744SOL     OW25078   2.567   1.050   9.678
 6744SOL    HW125079   2.553   1.057   9.777
 6744SOL    HW225080   2.651   0.999   9.660
 6745SOL     OW25081   3.114   1.348   9.698
 6745SOL    HW125082   3.164   1.425   9.738
 6745SOL    HW225083   3.019   1.350   9.730
 6746SOL     OW25084   3.444   0.639   9.782
 6746SOL    HW125085   3.413   0.700   9.855
 6746SOL    HW225086   3.494   0.691   9.713
 6747SOL     OW25087   3.071   0.525   9.585
 6747SOL    HW125088   3.084   0.441   9.639
 6747SOL    HW225089   3.042   0.599   9.645
 6748SOL     OW25090   2.169   0.063   9.928
 6748SOL    HW125091   2.158   0.157   9.961
 6748SOL    HW225092   2.164   0.000  10.005
 6749SOL     OW25093   3.484   0.367   9.684
 6749SOL    HW125094   3.486   0.291   9.748
 6749SOL    HW225095   3.436   0.444   9.724
 6750SOL     OW25096   3.402   0.274   9.435
 6750SOL    HW125097   3.341   0.199   9.458
 6750SOL    HW225098   3.424   0.326   9.518
 6751SOL     OW25099   1.870   1.326   9.510
 6751SOL    HW125100   1.777   1.347   9.479
 6751SOL    HW225101   1.880   1.227   9.523
 6752SOL     OW25102   2.677   0.572   9.635
 6752SOL    HW125103   2.684   0.483   9.589
 6752SOL    HW225104   2.583   0.606   9.627
 6753SOL     OW25105   2.335   0.500   9.501
 6753SOL    HW125106   2.396   0.580   9.505
 6753SOL    HW225107   2.240   0.531   9.508
 6754SOL     OW25108   3.164   0.855   9.619
 6754SOL    HW125109   3.078   0.824   9.661
 6754SOL    HW225110   3.160   0.841   9.520
 6755SOL     OW25111   3.588   0.135   9.833
 6755SOL    HW125112   3.661   0.118   9.766
 6755SOL    HW225113   3.557   0.048   9.871
 6756SOL     OW25114   2.534   1.616   9.464
 6756SOL    HW125115   2.543   1.626   9.365
 6756SOL    HW225116   2.494   1.527   9.485
 6757SOL     OW25117   3.703   0.175  10.273
 6757SOL    HW125118   3.742   0.090  10.237
 6757SOL    HW225119   3.605   0.177  10.254
 6758SOL     OW25120   3.056   1.612   9.341
 6758SOL    HW125121   3.062   1.519   9.378
 6758SOL    HW225122   2.997   1.612   9.261
 6759SOL     OW25123   2.778   0.910   9.601
 6759SOL    HW125124   2.841   0.948   9.533
 6759SOL    HW225125   2.818   0.827   9.640
 6760SOL     OW25126   3.366   1.607   9.354
 6760SOL    HW125127   3.274   1.644   9.361
 6760SOL    HW225128   3.404   1.627   9.264
 6761SOL     OW25129   2.452   1.487   9.801
 6761SOL    HW125130   2.494   1.429   9.731
 6761SOL    HW225131   2.408   1.566   9.757
 6762SOL     OW25132   2.117   1.348   9.600
 6762SOL    HW125133   2.021   1.349   9.573
 6762SOL    HW225134   2.129   1.401   9.684
 6763SOL     OW25135   1.937   0.345   9.343
 6763SOL    HW125136   1.845   0.317   9.314
 6763SOL    HW225137   1.968   0.422   9.287
 6764SOL     OW25138   1.934   0.166   9.628
 6764SOL    HW125139   1.917   0.249   9.574
 6764SOL    HW225140   2.024   0.129   9.606
 6765SOL     OW25141   3.045   1.335   9.429
 6765SOL    HW125142   2.946   1.324   9.431
 6765SOL    HW225143   3.079   1.350   9.522
 6766SOL     OW25144   3.087   0.325   9.759
 6766SOL    HW125145   3.152   0.251   9.748
 6766SOL    HW225146   3.107   0.375   9.843
 6767SOL     OW25147   2.721   1.374   9.326
 6767SOL    HW125148   2.675   1.389   9.414
 6767SOL    HW225149   2.765   1.459   9.296
 6768SOL     OW25150   2.945   0.984   9.397
 6768SOL    HW125151   2.922   1.037   9.315
 6768SOL    HW225152   3.026   0.928   9.378
 6769SOL     OW25153   2.290   0.424   9.830
 6769SOL    HW125154   2.320   0.352   9.768
 6769SOL    HW225155   2.251   0.384   9.913
 6770SOL     OW25156   2.632   1.330   9.611
 6770SOL    HW125157   2.586   1.243   9.628
 6770SOL    HW225158   2.723   1.327   9.652
 6771SOL     OW25159   3.214   0.052   9.478
 6771SOL    HW125160   3.249   0.011   9.394
 6771SOL    HW225161   3.124   0.014   9.498
 6772SOL     OW25162   1.901   1.077   9.610
 6772SOL    HW125163   2.000   1.066   9.601
 6772SOL    HW225164   1.861   0.991   9.642
 6773SOL     OW25165   2.737   1.646   9.647
 6773SOL    HW125166   2.660   1.611   9.593
 6773SOL    HW225167   2.705   1.717   9.709
 6774SOL     OW25168   2.092   2.490   0.113
 6774SOL    HW125169   1.999   2.488   0.150
 6774SOL    HW225170   2.093   2.451   0.021
 6775SOL     OW25171   2.087   2.137   0.996
 6775SOL    HW125172   2.122   2.120   1.088
 6775SOL    HW225173   1.999   2.092   0.984
 6776SOL     OW25174   1.881   2.230   0.647
 6776SOL    HW125175   1.799   2.273   0.686
 6776SOL    HW225176   1.853   2.157   0.584
 6777SOL     OW25177   2.431   3.137   1.165
 6777SOL    HW125178   2.338   3.130   1.128
 6777SOL    HW225179   2.442   3.226   1.209
 6778SOL     OW25180   2.997   2.565   0.717
 6778SOL    HW125181   3.054   2.643   0.692
 6778SOL    HW225182   2.937   2.591   0.793
 6779SOL     OW25183   3.617   2.469   0.231
 6779SOL    HW125184   3.605   2.456   0.132
 6779SOL    HW225185   3.587   2.388   0.280
 6780SOL     OW25186   2.630   3.006   1.023
 6780SOL    HW125187   2.552   3.023   1.083
 6780SOL    HW225188   2.664   3.093   0.987
 6781SOL     OW25189   2.712   2.660   1.823
 6781SOL    HW125190   2.708   2.736   1.888
 6781SOL    HW225191   2.734   2.696   1.732
 6782SOL     OW25192   2.547   2.874   0.665
 6782SOL    HW125193   2.616   2.858   0.735
 6782SOL    HW225194   2.474   2.931   0.703
 6783SOL     OW25195   2.548   3.023   1.803
 6783SOL    HW125196   2.608   3.102   1.817
 6783SOL    HW225197   2.462   3.054   1.762
 6784SOL     OW25198   2.197   3.297   1.061
 6784SOL    HW125199   2.119   3.266   1.008
 6784SOL    HW225200   2.255   3.355   1.004
 6785SOL     OW25201   3.322   3.367   1.339
 6785SOL    HW125202   3.346   3.461   1.365
 6785SOL    HW225203   3.306   3.313   1.421
 6786SOL     OW25204   2.300   2.254   1.499
 6786SOL    HW125205   2.382   2.198   1.508
 6786SOL    HW225206   2.219   2.196   1.503
 6787SOL     OW25207   3.465   2.309   0.737
 6787SOL    HW125208   3.391   2.355   0.687
 6787SOL    HW225209   3.516   2.377   0.790
 6788SOL     OW25210   2.093   3.575   0.483
 6788SOL    HW125211   2.127   3.652   0.537
 6788SOL    HW225212   2.137   3.575   0.393
 6789SOL     OW25213   2.989   3.203   1.690
 6789SOL    HW125214   3.036   3.203   1.778
 6789SOL    HW225215   2.941   3.116   1.679
 6790SOL     OW25216   2.092   3.296   0.538
 6790SOL    HW125217   2.066   3.392   0.538
 6790SOL    HW225218   2.021   3.242   0.583
 6791SOL     OW25219   2.482   3.648   1.439
 6791SOL    HW125220   2.390   3.631   1.474
 6791SOL    HW225221   2.510   3.740   1.465
 6792SOL     OW25222   2.468   2.826   0.123
 6792SOL    HW125223   2.475   2.910   0.069
 6792SOL    HW225224   2.514   2.839   0.211
 6793SOL     OW25225   3.456   1.976   1.480
 6793SOL    HW125226   3.438   2.043   1.408
 6793SOL    HW225227   3.453   2.022   1.569
 6794SOL     OW25228   1.984   2.505   0.563
 6794SOL    HW125229   1.939   2.417   0.580
 6794SOL    HW225230   1.983   2.559   0.647
 6795SOL     OW25231   3.704   3.629   0.359
 6795SOL    HW125232   3.758   3.600   0.439
 6795SOL    HW225233   3.734   3.719   0.330
 6796SOL     OW25234   1.889   3.458   0.117
 6796SOL    HW125235   1.870   3.362   0.138
 6796SOL    HW225236   1.856   3.516   0.192
 6797SOL     OW25237   3.551   2.784   0.612
 6797SOL    HW125238   3.646   2.755   0.620
 6797SOL    HW225239   3.543   2.849   0.537
 6798SOL     OW25240   3.503   2.970   0.432
 6798SOL    HW125241   3.589   2.972   0.380
 6798SOL    HW225242   3.517   3.017   0.520
 6799SOL     OW25243   1.975   2.599   1.597
 6799SOL    HW125244   2.063   2.586   1.642
 6799SOL    HW225245   1.962   2.696   1.575
 6800SOL     OW25246   2.475   3.227   0.726
 6800SOL    HW125247   2.426   3.140   0.735
 6800SOL    HW225248   2.452   3.270   0.639
 6801SOL     OW25249   3.155   3.090   1.423
 6801SOL    HW125250   3.192   3.017   1.365
 6801SOL    HW225251   3.207   3.095   1.508
 6802SOL     OW25252   2.671   1.866   0.502
 6802SOL    HW125253   2.711   1.957   0.493
 6802SOL    HW225254   2.571   1.874   0.508
 6803SOL     OW25255   2.059   2.838   1.264
 6803SOL    HW125256   2.148   2.793   1.250
 6803SOL    HW225257   1.986   2.773   1.245
 6804SOL     OW25258   3.387   2.861   0.190
 6804SOL    HW125259   3.324   2.785   0.203
 6804SOL    HW225260   3.435   2.879   0.276
 6805SOL     OW25261   3.049   3.654   1.616
 6805SOL    HW125262   3.073   3.714   1.540
 6805SOL    HW225263   3.056   3.559   1.586
 6806SOL     OW25264   2.179   2.113   1.801
 6806SOL    HW125265   2.250   2.184   1.807
 6806SOL    HW225266   2.091   2.152   1.829
 6807SOL     OW25267   3.328   3.279   0.953
 6807SOL    HW125268   3.269   3.285   1.033
 6807SOL    HW225269   3.313   3.191   0.907
 6808SOL     OW25270   3.529   3.576   0.572
 6808SOL    HW125271   3.488   3.553   0.484
 6808SOL    HW225272   3.511   3.502   0.637
 6809SOL     OW25273   2.460   2.591   0.270
 6809SOL    HW125274   2.484   2.660   0.202
 6809SOL    HW225275   2.382   2.624   0.324
 6810SOL     OW25276   3.143   2.207   0.944
 6810SOL    HW125277   3.057   2.157   0.931
 6810SOL    HW225278   3.205   2.153   1.000
 6811SOL     OW25279   2.669   2.467   1.465
 6811SOL    HW125280   2.622   2.464   1.554
 6811SOL    HW225281   2.618   2.412   1.399
 6812SOL     OW25282   3.256   2.331   1.674
 6812SOL    HW125283   3.236   2.374   1.762
 6812SOL    HW225284   3.334   2.269   1.683
 6813SOL     OW25285   2.835   2.752   1.572
 6813SOL    HW125286   2.881   2.668   1.543
 6813SOL    HW225287   2.779   2.786   1.497
 6814SOL     OW25288   2.853   2.272   1.242
 6814SOL    HW125289   2.776   2.306   1.296
 6814SOL    HW225290   2.819   2.221   1.163
 6815SOL     OW25291   2.903   2.563   0.429
 6815SOL    HW125292   2.929   2.559   0.525
 6815SOL    HW225293   2.818   2.512   0.415
 6816SOL     OW25294   2.727   2.210   0.195
 6816SOL    HW125295   2.786   2.273   0.146
 6816SOL    HW225296   2.746   2.116   0.166
 6817SOL     OW25297   3.581   2.447   1.831
 6817SOL    HW125298   3.555   2.536   1.795
 6817SOL    HW225299   3.579   2.379   1.758
 6818SOL     OW25300   2.412   2.058   0.885
 6818SOL    HW125301   2.407   2.053   0.985
 6818SOL    HW225302   2.414   2.154   0.856
 6819SOL     OW25303   2.870   3.318   0.477
 6819SOL    HW125304   2.824   3.390   0.425
 6819SOL    HW225305   2.866   3.338   0.575
 6820SOL     OW25306   2.213   3.663   0.853
 6820SOL    HW125307   2.263   3.577   0.859
 6820SOL    HW225308   2.278   3.740   0.850
 6821SOL     OW25309   3.657   2.928   0.873
 6821SOL    HW125310   3.595   2.913   0.797
 6821SOL    HW225311   3.605   2.939   0.958
 6822SOL     OW25312   3.089   3.412   1.506
 6822SOL    HW125313   3.095   3.335   1.570
 6822SOL    HW225314   3.037   3.386   1.426
 6823SOL     OW25315   2.183   2.805   0.242
 6823SOL    HW125316   2.265   2.844   0.200
 6823SOL    HW225317   2.156   2.723   0.193
 6824SOL     OW25318   3.320   2.597   0.728
 6824SOL    HW125319   3.315   2.532   0.803
 6824SOL    HW225320   3.400   2.656   0.741
 6825SOL     OW25321   2.323   3.128   1.727
 6825SOL    HW125322   2.273   3.129   1.641
 6825SOL    HW225323   2.260   3.110   1.803
 6826SOL     OW25324   2.973   3.638   0.237
 6826SOL    HW125325   2.913   3.576   0.287
 6826SOL    HW225326   3.004   3.594   0.152
 6827SOL     OW25327   2.064   2.147   1.498
 6827SOL    HW125328   1.984   2.207   1.485
 6827SOL    HW225329   2.054   2.098   1.584
 6828SOL     OW25330   3.494   3.239   0.081
 6828SOL    HW125331   3.462   3.333   0.071
 6828SOL    HW225332   3.418   3.176   0.069
 6829SOL     OW25333   2.326   3.605   0.323
 6829SOL    HW125334   2.359   3.644   0.409
 6829SOL    HW225335   2.402   3.598   0.258
 6830SOL     OW25336   3.262   1.969   0.426
 6830SOL    HW125337   3.238   1.932   0.336
 6830SOL    HW225338   3.361   1.985   0.430
 6831SOL     OW25339   2.111   3.647   1.241
 6831SOL    HW125340   2.168   3.582   1.291
 6831SOL    HW225341   2.095   3.614   1.148
 6832SOL     OW25342   2.802   3.560   0.904
 6832SOL    HW125343   2.882   3.503   0.925
 6832SOL    HW225344   2.753   3.520   0.827
 6833SOL     OW25345   3.409   2.084   1.729
 6833SOL    HW125346   3.404   2.121   1.821
 6833SOL    HW225347   3.337   2.015   1.717
 6834SOL     OW25348   2.476   1.984   0.117
 6834SOL    HW125349   2.574   1.962   0.124
 6834SOL    HW225350   2.445   1.967   0.024
 6835SOL     OW25351   2.643   2.126   1.749
 6835SOL    HW125352   2.710   2.065   1.792
 6835SOL    HW225353   2.570   2.145   1.814
 6836SOL     OW25354   2.750   3.376   1.195
 6836SOL    HW125355   2.727   3.351   1.101
 6836SOL    HW225356   2.811   3.307   1.234
 6837SOL     OW25357   3.213   2.452   1.433
 6837SOL    HW125358   3.241   2.409   1.518
 6837SOL    HW225359   3.238   2.548   1.434
 6838SOL     OW25360   2.665   3.264   0.924
 6838SOL    HW125361   2.755   3.278   0.882
 6838SOL    HW225362   2.594   3.266   0.853
 6839SOL     OW25363   2.784   2.365   0.899
 6839SOL    HW125364   2.759   2.356   0.803
 6839SOL    HW225365   2.832   2.283   0.930
 6840SOL     OW25366   2.401   1.926   0.512
 6840SOL    HW125367   2.320   1.927   0.570
 6840SOL    HW225368   2.404   2.009   0.457
 6841SOL     OW25369   3.296   3.050   0.041
 6841SOL    HW125370   3.328   2.974   0.098
 6841SOL    HW225371   3.204   3.077   0.071
 6842SOL     OW25372   2.797   2.098   0.480
 6842SOL    HW125373   2.749   2.139   0.402
 6842SOL    HW225374   2.896   2.096   0.461
 6843SOL     OW25375   2.938   2.545   1.464
 6843SOL    HW125376   2.858   2.484   1.467
 6843SOL    HW225377   3.019   2.492   1.440
 6844SOL     OW25378   3.089   3.432   0.793
 6844SOL    HW125379   3.110   3.506   0.728
 6844SOL    HW225380   3.157   3.432   0.866
 6845SOL     OW25381   2.894   2.411   0.016
 6845SOL    HW125382   2.853   2.493  -0.023
 6845SOL    HW225383   2.958   2.437   0.089
 6846SOL     OW25384   1.940   2.418   1.386
 6846SOL    HW125385   2.032   2.417   1.345
 6846SOL    HW225386   1.934   2.492   1.453
 6847SOL     OW25387   2.423   2.084   1.147
 6847SOL    HW125388   2.461   2.000   1.184
 6847SOL    HW225389   2.335   2.103   1.191
 6848SOL     OW25390   2.728   2.316   0.642
 6848SOL    HW125391   2.696   2.388   0.580
 6848SOL    HW225392   2.752   2.235   0.589
 6849SOL     OW25393   2.879   1.901   0.753
 6849SOL    HW125394   2.807   1.906   0.684
 6849SOL    HW225395   2.855   1.832   0.822
 6850SOL     OW25396   3.291   3.035   0.867
 6850SOL    HW125397   3.236   2.951   0.860
 6850SOL    HW225398   3.317   3.064   0.775
 6851SOL     OW25399   3.328   2.452   0.992
 6851SOL    HW125400   3.298   2.357   0.999
 6851SOL    HW225401   3.401   2.468   1.058
 6852SOL     OW25402   3.719   2.695   0.377
 6852SOL    HW125403   3.761   2.631   0.441
 6852SOL    HW225404   3.681   2.644   0.299
 6853SOL     OW25405   2.350   3.247   0.174
 6853SOL    HW125406   2.263   3.232   0.221
 6853SOL    HW225407   2.333   3.273   0.079
 6854SOL     OW25408   3.526   3.142   0.657
 6854SOL    HW125409   3.625   3.150   0.671
 6854SOL    HW225410   3.481   3.226   0.688
 6855SOL     OW25411   3.252   2.437   0.078
 6855SOL    HW125412   3.198   2.416   0.159
 6855SOL    HW225413   3.343   2.396   0.087
 6856SOL     OW25414   2.389   2.118   0.328
 6856SOL    HW125415   2.416   2.059   0.253
 6856SOL    HW225416   2.389   2.213   0.297
 6857SOL     OW25417   3.616   3.085   1.588
 6857SOL    HW125418   3.707   3.046   1.575
 6857SOL    HW225419   3.624   3.181   1.612
 6858SOL     OW25420   2.926   3.209   1.340
 6858SOL    HW125421   2.846   3.186   1.395
 6858SOL    HW225422   3.009   3.183   1.389
 6859SOL     OW25423   3.454   3.491   1.625
 6859SOL    HW125424   3.481   3.525   1.535
 6859SOL    HW225425   3.533   3.453   1.671
 6860SOL     OW25426   2.973   3.057   1.100
 6860SOL    HW125427   2.933   3.101   1.181
 6860SOL    HW225428   2.932   3.094   1.017
 6861SOL     OW25429   3.500   2.961   1.079
 6861SOL    HW125430   3.505   3.042   1.138
 6861SOL    HW225431   3.414   2.963   1.028
 6862SOL     OW25432   2.777   1.951   1.402
 6862SOL    HW125433   2.802   1.931   1.307
 6862SOL    HW225434   2.849   2.007   1.444
 6863SOL     OW25435   2.842   2.978   1.719
 6863SOL    HW125436   2.743   2.984   1.729
 6863SOL    HW225437   2.865   2.898   1.663
 6864SOL     OW25438   2.567   2.912   0.368
 6864SOL    HW125439   2.553   2.919   0.467
 6864SOL    HW225440   2.651   2.861   0.350
 6865SOL     OW25441   2.272   2.675   1.251
 6865SOL    HW125442   2.358   2.687   1.301
 6865SOL    HW225443   2.230   2.588   1.278
 6866SOL     OW25444   3.136   2.248   1.262
 6866SOL    HW125445   3.157   2.322   1.326
 6866SOL    HW225446   3.047   2.265   1.219
 6867SOL     OW25447   2.428   2.399   0.865
 6867SOL    HW125448   2.440   2.465   0.791
 6867SOL    HW225449   2.474   2.433   0.948
 6868SOL     OW25450   3.134   3.307   1.142
 6868SOL    HW125451   3.181   3.320   1.229
 6868SOL    HW225452   3.068   3.233   1.151
 6869SOL     OW25453   3.444   2.501   0.472
 6869SOL    HW125454   3.413   2.562   0.545
 6869SOL    HW225455   3.494   2.553   0.403
 6870SOL     OW25456   2.216   3.372   1.329
 6870SOL    HW125457   2.195   3.328   1.242
 6870SOL    HW225458   2.313   3.398   1.332
 6871SOL     OW25459   2.264   2.613   1.598
 6871SOL    HW125460   2.332   2.668   1.551
 6871SOL    HW225461   2.304   2.525   1.625
 6872SOL     OW25462   3.449   2.641   1.670
 6872SOL    HW125463   3.357   2.679   1.665
 6872SOL    HW225464   3.509   2.688   1.605
 6873SOL     OW25465   2.875   1.967   1.770
 6873SOL    HW125466   2.881   2.052   1.718
 6873SOL    HW225467   2.907   1.891   1.713
 6874SOL     OW25468   2.366   1.912   1.740
 6874SOL    HW125469   2.324   1.855   1.670
 6874SOL    HW225470   2.300   1.981   1.772
 6875SOL     OW25471   2.435   2.732   1.029
 6875SOL    HW125472   2.479   2.821   1.020
 6875SOL    HW225473   2.372   2.732   1.106
 6876SOL     OW25474   3.222   2.724   1.045
 6876SOL    HW125475   3.147   2.724   0.979
 6876SOL    HW225476   3.259   2.632   1.054
 6877SOL     OW25477   3.071   2.387   0.275
 6877SOL    HW125478   3.084   2.303   0.329
 6877SOL    HW225479   3.042   2.461   0.335
 6878SOL     OW25480   2.169   2.075   1.231
 6878SOL    HW125481   2.146   2.112   1.321
 6878SOL    HW225482   2.139   1.980   1.225
 6879SOL     OW25483   1.899   3.172   1.282
 6879SOL    HW125484   1.952   3.123   1.350
 6879SOL    HW225485   1.921   3.270   1.287
 6880SOL     OW25486   2.594   2.496   1.064
 6880SOL    HW125487   2.653   2.470   0.988
 6880SOL    HW225488   2.566   2.592   1.053
 6881SOL     OW25489   3.590   2.797   1.854
 6881SOL    HW125490   3.544   2.790   1.765
 6881SOL    HW225491   3.528   2.841   1.920
 6882SOL     OW25492   2.169   1.925   0.618
 6882SOL    HW125493   2.158   2.019   0.651
 6882SOL    HW225494   2.164   1.862   0.695
 6883SOL     OW25495   3.484   2.229   0.374
 6883SOL    HW125496   3.486   2.153   0.438
 6883SOL    HW225497   3.436   2.306   0.414
 6884SOL     OW25498   2.885   2.628   0.966
 6884SOL    HW125499   2.900   2.649   1.062
 6884SOL    HW225500   2.855   2.533   0.957
 6885SOL     OW25501   2.842   3.435   1.700
 6885SOL    HW125502   2.822   3.479   1.612
 6885SOL    HW225503   2.881   3.344   1.684
 6886SOL     OW25504   3.721   3.380   1.605
 6886SOL    HW125505   3.735   3.407   1.510
 6886SOL    HW225506   3.804   3.402   1.658
 6887SOL     OW25507   2.212   2.760   1.804
 6887SOL    HW125508   2.288   2.804   1.852
 6887SOL    HW225509   2.247   2.713   1.722
 6888SOL     OW25510   3.402   2.136   0.125
 6888SOL    HW125511   3.341   2.061   0.148
 6888SOL    HW225512   3.424   2.188   0.208
 6889SOL     OW25513   3.165   2.700   0.042
 6889SOL    HW125514   3.199   2.607   0.057
 6889SOL    HW225515   3.183   2.727  -0.053
 6890SOL     OW25516   2.930   3.195   0.849
 6890SOL    HW125517   2.937   3.111   0.794
 6890SOL    HW225518   2.992   3.264   0.813
 6891SOL     OW25519   2.201   2.371   1.006
 6891SOL    HW125520   2.149   2.288   0.989
 6891SOL    HW225521   2.278   2.376   0.942
 6892SOL     OW25522   3.000   2.242   1.678
 6892SOL    HW125523   2.955   2.305   1.742
 6892SOL    HW225524   3.093   2.273   1.661
 6893SOL     OW25525   3.022   2.069   1.477
 6893SOL    HW125526   3.022   2.133   1.554
 6893SOL    HW225527   3.050   2.117   1.394
 6894SOL     OW25528   1.870   3.188   0.200
 6894SOL    HW125529   1.777   3.209   0.169
 6894SOL    HW225530   1.880   3.089   0.213
 6895SOL     OW25531   1.950   3.663   0.927
 6895SOL    HW125532   1.908   3.577   0.900
 6895SOL    HW225533   2.044   3.666   0.893
 6896SOL     OW25534   2.366   3.430   0.910
 6896SOL    HW125535   2.432   3.504   0.919
 6896SOL    HW225536   2.410   3.351   0.868
 6897SOL     OW25537   2.864   2.658   1.238
 6897SOL    HW125538   2.905   2.626   1.324
 6897SOL    HW225539   2.768   2.631   1.235
 6898SOL     OW25540   1.902   2.406   1.114
 6898SOL    HW125541   1.987   2.373   1.073
 6898SOL    HW225542   1.915   2.421   1.212
 6899SOL     OW25543   2.051   2.382   1.722
 6899SOL    HW125544   2.110   2.342   1.652
 6899SOL    HW225545   1.993   2.453   1.681
 6900SOL     OW25546   3.231   2.812   1.660
 6900SOL    HW125547   3.270   2.901   1.680
 6900SOL    HW225548   3.241   2.792   1.563
 6901SOL     OW25549   2.677   2.434   0.325
 6901SOL    HW125550   2.684   2.345   0.279
 6901SOL    HW225551   2.583   2.468   0.317
 6902SOL     OW25552   2.114   3.426   1.744
 6902SOL    HW125553   2.084   3.483   1.820
 6902SOL    HW225554   2.107   3.329   1.770
 6903SOL     OW25555   2.533   2.326   1.269
 6903SOL    HW125556   2.499   2.237   1.239
 6903SOL    HW225557   2.559   2.380   1.189
 6904SOL     OW25558   2.335   2.362   0.191
 6904SOL    HW125559   2.396   2.442   0.195
 6904SOL    HW225560   2.240   2.393   0.198
 6905SOL     OW25561   2.021   2.999   1.466
 6905SOL    HW125562   2.043   2.938   1.542
 6905SOL    HW225563   2.031   2.950   1.380
 6906SOL     OW25564   3.209   2.921   1.234
 6906SOL    HW125565   3.233   2.858   1.160
 6906SOL    HW225566   3.119   2.961   1.216
 6907SOL     OW25567   3.164   2.717   0.309
 6907SOL    HW125568   3.078   2.686   0.351
 6907SOL    HW225569   3.160   2.703   0.210
 6908SOL     OW25570   3.621   3.609   1.154
 6908SOL    HW125571   3.682   3.639   1.081
 6908SOL    HW225572   3.583   3.520   1.132
 6909SOL     OW25573   3.114   3.593   1.128
 6909SOL    HW125574   3.198   3.598   1.074
 6909SOL    HW225575   3.091   3.497   1.146
 6910SOL     OW25576   1.945   3.120   1.022
 6910SOL    HW125577   1.940   3.119   1.122
 6910SOL    HW225578   1.862   3.079   0.984
 6911SOL     OW25579   2.550   3.524   1.716
 6911SOL    HW125580   2.494   3.605   1.725
 6911SOL    HW225581   2.602   3.528   1.630
 6912SOL     OW25582   2.765   1.948   0.133
 6912SOL    HW125583   2.816   1.949   0.047
 6912SOL    HW225584   2.821   1.906   0.204
 6913SOL     OW25585   3.588   1.997   0.523
 6913SOL    HW125586   3.661   1.980   0.456
 6913SOL    HW225587   3.557   1.910   0.561
 6914SOL     OW25588   1.992   3.656   1.851
 6914SOL    HW125589   1.951   3.582   1.904
 6914SOL    HW225590   2.056   3.707   1.909
 6915SOL     OW25591   3.142   2.789   0.672
 6915SOL    HW125592   3.202   2.708   0.674
 6915SOL    HW225593   3.182   2.858   0.612
 6916SOL     OW25594   2.692   3.135   1.422
 6916SOL    HW125595   2.687   3.168   1.517
 6916SOL    HW225596   2.606   3.154   1.376
 6917SOL     OW25597   2.534   3.478   0.154
 6917SOL    HW125598   2.543   3.488   0.055
 6917SOL    HW225599   2.494   3.389   0.175
 6918SOL     OW25600   3.512   3.582   1.394
 6918SOL    HW125601   3.565   3.592   1.310
 6918SOL    HW225602   3.485   3.672   1.428
 6919SOL     OW25603   3.703   2.037   0.963
 6919SOL    HW125604   3.742   1.952   0.927
 6919SOL    HW225605   3.605   2.039   0.944
 6920SOL     OW25606   2.125   2.188   0.720
 6920SOL    HW125607   2.046   2.239   0.686
 6920SOL    HW225608   2.116   2.173   0.818
 6921SOL     OW25609   3.056   3.474   0.031
 6921SOL    HW125610   3.062   3.381   0.068
 6921SOL    HW225611   2.997   3.474  -0.049
 6922SOL     OW25612   2.684   2.864   1.372
 6922SOL    HW125613   2.724   2.863   1.280
 6922SOL    HW225614   2.694   2.956   1.412
 6923SOL     OW25615   2.778   2.772   0.291
 6923SOL    HW125616   2.841   2.810   0.223
 6923SOL    HW225617   2.818   2.689   0.330
 6924SOL     OW25618   3.366   3.469   0.044
 6924SOL    HW125619   3.274   3.506   0.051
 6924SOL    HW225620   3.404   3.489  -0.046
 6925SOL     OW25621   2.234   3.150   1.490
 6925SOL    HW125622   2.221   3.243   1.456
 6925SOL    HW225623   2.150   3.098   1.477
 6926SOL     OW25624   3.476   3.154   1.289
 6926SOL    HW125625   3.536   3.157   1.369
 6926SOL    HW225626   3.401   3.218   1.302
 6927SOL     OW25627   2.901   2.960   0.696
 6927SOL    HW125628   2.831   2.913   0.750
 6927SOL    HW225629   2.960   2.892   0.653
 6928SOL     OW25630   2.876   2.098   0.971
 6928SOL    HW125631   2.868   2.062   0.878
 6928SOL    HW225632   2.874   2.022   1.036
 6929SOL     OW25633   2.452   3.349   0.491
 6929SOL    HW125634   2.494   3.291   0.421
 6929SOL    HW225635   2.408   3.428   0.447
 6930SOL     OW25636   3.571   2.247   1.381
 6930SOL    HW125637   3.644   2.316   1.385
 6930SOL    HW225638   3.599   2.172   1.322
 6931SOL     OW25639   2.117   3.210   0.290
 6931SOL    HW125640   2.021   3.211   0.263
 6931SOL    HW225641   2.129   3.263   0.374
 6932SOL     OW25642   1.967   2.875   1.726
 6932SOL    HW125643   1.890   2.842   1.780
 6932SOL    HW225644   2.052   2.845   1.768
 6933SOL     OW25645   2.534   2.065   1.489
 6933SOL    HW125646   2.624   2.049   1.449
 6933SOL    HW225647   2.542   2.070   1.588
 6934SOL     OW25648   1.937   2.207   0.033
 6934SOL    HW125649   1.845   2.179   0.004
 6934SOL    HW225650   1.968   2.284  -0.023
 6935SOL     OW25651   3.302   2.718   1.398
 6935SOL    HW125652   3.245   2.770   1.335
 6935SOL    HW225653   3.398   2.730   1.374
 6936SOL     OW25654   1.934   2.028   0.318
 6936SOL    HW125655   1.917   2.111   0.264
 6936SOL    HW225656   2.024   1.991   0.296
 6937SOL     OW25657   3.045   3.197   0.119
 6937SOL    HW125658   2.946   3.186   0.121
 6937SOL    HW225659   3.079   3.212   0.212
 6938SOL     OW25660   2.475   2.704   1.431
 6938SOL    HW125661   2.531   2.785   1.414
 6938SOL    HW225662   2.534   2.624   1.434
 6939SOL     OW25663   3.355   3.629   0.959
 6939SOL    HW125664   3.388   3.693   0.890
 6939SOL    HW225665   3.421   3.623   1.034
 6940SOL     OW25666   2.578   2.427   1.708
 6940SOL    HW125667   2.597   2.492   1.782
 6940SOL    HW225668   2.638   2.347   1.717
 6941SOL     OW25669   3.312   3.082   1.633
 6941SOL    HW125670   3.303   3.072   1.732
 6941SOL    HW225671   3.408   3.075   1.607
 6942SOL     OW25672   2.252   3.603   1.560
 6942SOL    HW125673   2.161   3.644   1.558
 6942SOL    HW225674   2.245   3.509   1.592
 6943SOL     OW25675   3.536   2.745   1.254
 6943SOL    HW125676   3.509   2.656   1.217
 6943SOL    HW225677   3.537   2.813   1.181
 6944SOL     OW25678   3.087   2.187   0.449
 6944SOL    HW125679   3.152   2.113   0.438
 6944SOL    HW225680   3.107   2.237   0.533
 6945SOL     OW25681   2.456   2.607   0.652
 6945SOL    HW125682   2.506   2.692   0.633
 6945SOL    HW225683   2.368   2.609   0.604
 6946SOL     OW25684   3.639   2.204   1.642
 6946SOL    HW125685   3.622   2.235   1.548
 6946SOL    HW225686   3.555   2.167   1.680
 6947SOL     OW25687   3.592   2.796   1.517
 6947SOL    HW125688   3.630   2.887   1.532
 6947SOL    HW225689   3.584   2.779   1.418
 6948SOL     OW25690   2.721   3.236   0.016
 6948SOL    HW125691   2.675   3.251   0.104
 6948SOL    HW225692   2.765   3.321  -0.014
 6949SOL     OW25693   2.523   3.652   0.953
 6949SOL    HW125694   2.477   3.740   0.940
 6949SOL    HW225695   2.622   3.664   0.946
 6950SOL     OW25696   2.721   2.818   0.861
 6950SOL    HW125697   2.775   2.749   0.909
 6950SOL    HW225698   2.689   2.887   0.927
 6951SOL     OW25699   2.945   2.846   0.087
 6951SOL    HW125700   2.922   2.899   0.005
 6951SOL    HW225701   3.026   2.790   0.068
 6952SOL     OW25702   3.723   3.431   0.851
 6952SOL    HW125703   3.652   3.419   0.781
 6952SOL    HW225704   3.724   3.352   0.911
 6953SOL     OW25705   2.083   3.176   1.844
 6953SOL    HW125706   2.018   3.103   1.823
 6953SOL    HW225707   2.087   3.190   1.942
 6954SOL     OW25708   1.941   3.102   0.653
 6954SOL    HW125709   1.940   3.055   0.741
 6954SOL    HW225710   2.023   3.074   0.602
 6955SOL     OW25711   2.534   3.253   1.624
 6955SOL    HW125712   2.456   3.203   1.662
 6955SOL    HW225713   2.531   3.348   1.655
 6956SOL     OW25714   3.686   2.054   1.227
 6956SOL    HW125715   3.682   1.964   1.271
 6956SOL    HW225716   3.689   2.043   1.128
 6957SOL     OW25717   2.290   2.286   0.520
 6957SOL    HW125718   2.320   2.214   0.458
 6957SOL    HW225719   2.251   2.246   0.603
 6958SOL     OW25720   3.567   3.349   1.104
 6958SOL    HW125721   3.474   3.324   1.077
 6958SOL    HW225722   3.593   3.299   1.186
 6959SOL     OW25723   2.179   2.409   1.280
 6959SOL    HW125724   2.217   2.350   1.352
 6959SOL    HW225725   2.219   2.383   1.192
 6960SOL     OW25726   2.674   3.448   0.687
 6960SOL    HW125727   2.706   3.458   0.593
 6960SOL    HW225728   2.595   3.386   0.689
 6961SOL     OW25729   3.286   2.076   1.112
 6961SOL    HW125730   3.338   2.011   1.167
 6961SOL    HW225731   3.237   2.139   1.173
 6962SOL     OW25732   2.863   1.896   1.154
 6962SOL    HW125733   2.800   1.824   1.123
 6962SOL    HW225734   2.956   1.860   1.154
 6963SOL     OW25735   2.632   3.192   0.301
 6963SOL    HW125736   2.586   3.105   0.318
 6963SOL    HW225737   2.723   3.189   0.342
 6964SOL     OW25738   2.480   3.429   1.284
 6964SOL    HW125739   2.475   3.511   1.341
 6964SOL    HW225740   2.569   3.426   1.239
 6965SOL     OW25741   3.214   1.914   0.168
 6965SOL    HW125742   3.249   1.873   0.084
 6965SOL    HW225743   3.124   1.876   0.188
 6966SOL     OW25744   3.162   2.315   0.691
 6966SOL    HW125745   3.103   2.395   0.695
 6966SOL    HW225746   3.177   2.280   0.784
 6967SOL     OW25747   3.455   2.083   0.882
 6967SOL    HW125748   3.371   2.082   0.936
 6967SOL    HW225749   3.457   2.166   0.826
 6968SOL     OW25750   1.901   2.939   0.300
 6968SOL    HW125751   2.000   2.928   0.291
 6968SOL    HW225752   1.861   2.853   0.332
 6969SOL     OW25753   2.737   3.508   0.337
 6969SOL    HW125754   2.660   3.473   0.283
 6969SOL    HW225755   2.705   3.579   0.399
 6970SOL     OW25756   2.092   2.490   1.975
 6970SOL    HW125757   1.999   2.488   2.012
 6970SOL    HW225758   2.093   2.451   1.883
 6971SOL     OW25759   2.087   2.137   2.858
 6971SOL    HW125760   2.122   2.120   2.950
 6971SOL    HW225761   1.999   2.092   2.846
 6972SOL     OW25762   1.881   2.230   2.509
 6972SOL    HW125763   1.799   2.273   2.548
 6972SOL    HW225764   1.853   2.157   2.446
 6973SOL     OW25765   2.431   3.137   3.027
 6973SOL    HW125766   2.338   3.130   2.990
 6973SOL    HW225767   2.442   3.226   3.071
 6974SOL     OW25768   3.417   3.373   2.565
 6974SOL    HW125769   3.360   3.357   2.646
 6974SOL    HW225770   3.358   3.383   2.485
 6975SOL     OW25771   2.997   2.565   2.579
 6975SOL    HW125772   3.054   2.643   2.554
 6975SOL    HW225773   2.937   2.591   2.655
 6976SOL     OW25774   3.617   2.469   2.093
 6976SOL    HW125775   3.605   2.456   1.994
 6976SOL    HW225776   3.587   2.388   2.142
 6977SOL     OW25777   2.630   3.006   2.885
 6977SOL    HW125778   2.552   3.023   2.945
 6977SOL    HW225779   2.664   3.093   2.849
 6978SOL     OW25780   2.712   2.660   3.685
 6978SOL    HW125781   2.708   2.736   3.750
 6978SOL    HW225782   2.734   2.696   3.594
 6979SOL     OW25783   2.547   2.874   2.527
 6979SOL    HW125784   2.616   2.858   2.597
 6979SOL    HW225785   2.474   2.931   2.565
 6980SOL     OW25786   2.548   3.023   3.665
 6980SOL    HW125787   2.608   3.102   3.679
 6980SOL    HW225788   2.462   3.054   3.624
 6981SOL     OW25789   2.197   3.297   2.923
 6981SOL    HW125790   2.119   3.266   2.870
 6981SOL    HW225791   2.255   3.355   2.866
 6982SOL     OW25792   3.322   3.367   3.201
 6982SOL    HW125793   3.346   3.461   3.227
 6982SOL    HW225794   3.306   3.313   3.283
 6983SOL     OW25795   2.300   2.254   3.361
 6983SOL    HW125796   2.382   2.198   3.370
 6983SOL    HW225797   2.219   2.196   3.365
 6984SOL     OW25798   3.465   2.309   2.599
 6984SOL    HW125799   3.391   2.355   2.549
 6984SOL    HW225800   3.516   2.377   2.652
 6985SOL     OW25801   2.093   3.575   2.345
 6985SOL    HW125802   2.127   3.652   2.399
 6985SOL    HW225803   2.137   3.575   2.255
 6986SOL     OW25804   2.989   3.203   3.552
 6986SOL    HW125805   3.036   3.203   3.640
 6986SOL    HW225806   2.941   3.116   3.541
 6987SOL     OW25807   2.092   3.296   2.400
 6987SOL    HW125808   2.066   3.392   2.400
 6987SOL    HW225809   2.021   3.242   2.445
 6988SOL     OW25810   2.482   3.648   3.301
 6988SOL    HW125811   2.390   3.631   3.336
 6988SOL    HW225812   2.510   3.740   3.327
 6989SOL     OW25813   2.468   2.826   1.985
 6989SOL    HW125814   2.475   2.910   1.931
 6989SOL    HW225815   2.514   2.839   2.073
 6990SOL     OW25816   3.456   1.976   3.342
 6990SOL    HW125817   3.438   2.043   3.270
 6990SOL    HW225818   3.453   2.022   3.431
 6991SOL     OW25819   1.984   2.505   2.425
 6991SOL    HW125820   1.939   2.417   2.442
 6991SOL    HW225821   1.983   2.559   2.509
 6992SOL     OW25822   3.704   3.629   2.221
 6992SOL    HW125823   3.758   3.600   2.301
 6992SOL    HW225824   3.734   3.719   2.192
 6993SOL     OW25825   1.889   3.458   1.979
 6993SOL    HW125826   1.870   3.362   2.000
 6993SOL    HW225827   1.856   3.516   2.054
 6994SOL     OW25828   3.551   2.784   2.474
 6994SOL    HW125829   3.646   2.755   2.482
 6994SOL    HW225830   3.543   2.849   2.399
 6995SOL     OW25831   3.503   2.970   2.294
 6995SOL    HW125832   3.589   2.972   2.242
 6995SOL    HW225833   3.517   3.017   2.382
 6996SOL     OW25834   1.975   2.599   3.459
 6996SOL    HW125835   2.063   2.586   3.504
 6996SOL    HW225836   1.962   2.696   3.437
 6997SOL     OW25837   2.475   3.227   2.588
 6997SOL    HW125838   2.426   3.140   2.597
 6997SOL    HW225839   2.452   3.270   2.501
 6998SOL     OW25840   3.155   3.090   3.285
 6998SOL    HW125841   3.192   3.017   3.227
 6998SOL    HW225842   3.207   3.095   3.370
 6999SOL     OW25843   2.671   1.866   2.364
 6999SOL    HW125844   2.711   1.957   2.355
 6999SOL    HW225845   2.571   1.874   2.370
 7000SOL     OW25846   3.387   2.861   2.052
 7000SOL    HW125847   3.324   2.785   2.065
 7000SOL    HW225848   3.435   2.879   2.138
 7001SOL     OW25849   3.049   3.654   3.478
 7001SOL    HW125850   3.073   3.714   3.402
 7001SOL    HW225851   3.056   3.559   3.448
 7002SOL     OW25852   2.179   2.113   3.663
 7002SOL    HW125853   2.250   2.184   3.669
 7002SOL    HW225854   2.091   2.152   3.691
 7003SOL     OW25855   3.328   3.279   2.815
 7003SOL    HW125856   3.269   3.285   2.895
 7003SOL    HW225857   3.313   3.191   2.769
 7004SOL     OW25858   3.529   3.576   2.434
 7004SOL    HW125859   3.488   3.553   2.346
 7004SOL    HW225860   3.511   3.502   2.499
 7005SOL     OW25861   2.460   2.591   2.132
 7005SOL    HW125862   2.484   2.660   2.064
 7005SOL    HW225863   2.382   2.624   2.186
 7006SOL     OW25864   3.143   2.207   2.806
 7006SOL    HW125865   3.057   2.157   2.793
 7006SOL    HW225866   3.205   2.153   2.862
 7007SOL     OW25867   3.438   3.524   2.169
 7007SOL    HW125868   3.527   3.570   2.172
 7007SOL    HW225869   3.417   3.500   2.074
 7008SOL     OW25870   2.669   2.467   3.327
 7008SOL    HW125871   2.622   2.464   3.416
 7008SOL    HW225872   2.618   2.412   3.261
 7009SOL     OW25873   3.256   2.331   3.536
 7009SOL    HW125874   3.236   2.374   3.624
 7009SOL    HW225875   3.334   2.269   3.545
 7010SOL     OW25876   2.835   2.752   3.434
 7010SOL    HW125877   2.881   2.668   3.405
 7010SOL    HW225878   2.779   2.786   3.359
 7011SOL     OW25879   2.853   2.272   3.104
 7011SOL    HW125880   2.776   2.306   3.158
 7011SOL    HW225881   2.819   2.221   3.025
 7012SOL     OW25882   2.903   2.563   2.291
 7012SOL    HW125883   2.929   2.559   2.387
 7012SOL    HW225884   2.818   2.512   2.277
 7013SOL     OW25885   1.938   2.673   2.651
 7013SOL    HW125886   2.037   2.661   2.660
 7013SOL    HW225887   1.914   2.768   2.672
 7014SOL     OW25888   1.992   3.683   3.433
 7014SOL    HW125889   1.982   3.668   3.532
 7014SOL    HW225890   1.906   3.719   3.397
 7015SOL     OW25891   2.727   2.210   2.057
 7015SOL    HW125892   2.786   2.273   2.008
 7015SOL    HW225893   2.746   2.116   2.028
 7016SOL     OW25894   3.581   2.447   3.693
 7016SOL    HW125895   3.555   2.536   3.657
 7016SOL    HW225896   3.579   2.379   3.620
 7017SOL     OW25897   3.224   3.006   2.407
 7017SOL    HW125898   3.307   2.977   2.359
 7017SOL    HW225899   3.175   3.073   2.351
 7018SOL     OW25900   2.412   2.058   2.747
 7018SOL    HW125901   2.407   2.053   2.847
 7018SOL    HW225902   2.414   2.154   2.718
 7019SOL     OW25903   2.870   3.318   2.339
 7019SOL    HW125904   2.824   3.390   2.287
 7019SOL    HW225905   2.866   3.338   2.437
 7020SOL     OW25906   2.213   3.663   2.715
 7020SOL    HW125907   2.263   3.577   2.721
 7020SOL    HW225908   2.278   3.740   2.712
 7021SOL     OW25909   3.657   2.928   2.735
 7021SOL    HW125910   3.595   2.913   2.659
 7021SOL    HW225911   3.605   2.939   2.820
 7022SOL     OW25912   3.089   3.412   3.368
 7022SOL    HW125913   3.095   3.335   3.432
 7022SOL    HW225914   3.037   3.386   3.288
 7023SOL     OW25915   2.183   2.805   2.104
 7023SOL    HW125916   2.265   2.844   2.062
 7023SOL    HW225917   2.156   2.723   2.055
 7024SOL     OW25918   3.320   2.597   2.590
 7024SOL    HW125919   3.315   2.532   2.665
 7024SOL    HW225920   3.400   2.656   2.603
 7025SOL     OW25921   2.323   3.128   3.589
 7025SOL    HW125922   2.273   3.129   3.503
 7025SOL    HW225923   2.260   3.110   3.665
 7026SOL     OW25924   2.973   3.638   2.099
 7026SOL    HW125925   2.913   3.576   2.149
 7026SOL    HW225926   3.004   3.594   2.014
 7027SOL     OW25927   2.064   2.147   3.360
 7027SOL    HW125928   1.984   2.207   3.347
 7027SOL    HW225929   2.054   2.098   3.446
 7028SOL     OW25930   3.494   3.239   1.943
 7028SOL    HW125931   3.462   3.333   1.933
 7028SOL    HW225932   3.418   3.176   1.931
 7029SOL     OW25933   3.262   1.969   2.288
 7029SOL    HW125934   3.238   1.932   2.198
 7029SOL    HW225935   3.361   1.985   2.292
 7030SOL     OW25936   2.111   3.647   3.103
 7030SOL    HW125937   2.168   3.582   3.153
 7030SOL    HW225938   2.095   3.614   3.010
 7031SOL     OW25939   2.802   3.560   2.766
 7031SOL    HW125940   2.882   3.503   2.787
 7031SOL    HW225941   2.753   3.520   2.689
 7032SOL     OW25942   2.244   2.562   2.342
 7032SOL    HW125943   2.289   2.472   2.339
 7032SOL    HW225944   2.150   2.551   2.375
 7033SOL     OW25945   3.409   2.084   3.591
 7033SOL    HW125946   3.404   2.121   3.683
 7033SOL    HW225947   3.337   2.015   3.579
 7034SOL     OW25948   2.476   1.984   1.979
 7034SOL    HW125949   2.574   1.962   1.986
 7034SOL    HW225950   2.445   1.967   1.886
 7035SOL     OW25951   2.643   2.126   3.611
 7035SOL    HW125952   2.710   2.065   3.654
 7035SOL    HW225953   2.570   2.145   3.676
 7036SOL     OW25954   2.750   3.376   3.057
 7036SOL    HW125955   2.727   3.351   2.963
 7036SOL    HW225956   2.811   3.307   3.096
 7037SOL     OW25957   3.213   2.452   3.295
 7037SOL    HW125958   3.241   2.409   3.380
 7037SOL    HW225959   3.238   2.548   3.296
 7038SOL     OW25960   2.665   3.264   2.786
 7038SOL    HW125961   2.755   3.278   2.744
 7038SOL    HW225962   2.594   3.266   2.715
 7039SOL     OW25963   2.784   2.365   2.761
 7039SOL    HW125964   2.759   2.356   2.665
 7039SOL    HW225965   2.832   2.283   2.792
 7040SOL     OW25966   2.401   1.926   2.374
 7040SOL    HW125967   2.320   1.927   2.432
 7040SOL    HW225968   2.404   2.009   2.319
 7041SOL     OW25969   3.296   3.050   1.903
 7041SOL    HW125970   3.328   2.974   1.960
 7041SOL    HW225971   3.204   3.077   1.933
 7042SOL     OW25972   2.159   1.897   2.033
 7042SOL    HW125973   2.208   1.981   2.012
 7042SOL    HW225974   2.221   1.832   2.078
 7043SOL     OW25975   2.797   2.098   2.342
 7043SOL    HW125976   2.749   2.139   2.264
 7043SOL    HW225977   2.896   2.096   2.323
 7044SOL     OW25978   2.938   2.545   3.326
 7044SOL    HW125979   2.858   2.484   3.329
 7044SOL    HW225980   3.019   2.492   3.302
 7045SOL     OW25981   3.089   3.432   2.655
 7045SOL    HW125982   3.110   3.506   2.590
 7045SOL    HW225983   3.157   3.432   2.728
 7046SOL     OW25984   2.321   3.014   2.603
 7046SOL    HW125985   2.250   2.987   2.668
 7046SOL    HW225986   2.295   2.986   2.510
 7047SOL     OW25987   3.133   3.659   2.453
 7047SOL    HW125988   3.177   3.723   2.389
 7047SOL    HW225989   3.083   3.711   2.523
 7048SOL     OW25990   2.894   2.411   1.878
 7048SOL    HW125991   2.853   2.493   1.839
 7048SOL    HW225992   2.958   2.437   1.951
 7049SOL     OW25993   1.940   2.418   3.248
 7049SOL    HW125994   2.032   2.417   3.207
 7049SOL    HW225995   1.934   2.492   3.315
 7050SOL     OW25996   2.423   2.084   3.009
 7050SOL    HW125997   2.461   2.000   3.046
 7050SOL    HW225998   2.335   2.103   3.053
 7051SOL     OW25999   2.728   2.316   2.504
 7051SOL    HW126000   2.696   2.388   2.442
 7051SOL    HW226001   2.752   2.235   2.451
 7052SOL     OW26002   2.879   1.901   2.615
 7052SOL    HW126003   2.807   1.906   2.546
 7052SOL    HW226004   2.855   1.832   2.684
 7053SOL     OW26005   3.291   3.035   2.729
 7053SOL    HW126006   3.236   2.951   2.722
 7053SOL    HW226007   3.317   3.064   2.637
 7054SOL     OW26008   3.328   2.452   2.854
 7054SOL    HW126009   3.298   2.357   2.861
 7054SOL    HW226010   3.401   2.468   2.920
 7055SOL     OW26011   3.719   2.695   2.239
 7055SOL    HW126012   3.761   2.631   2.303
 7055SOL    HW226013   3.681   2.644   2.161
 7056SOL     OW26014   2.350   3.247   2.036
 7056SOL    HW126015   2.263   3.232   2.083
 7056SOL    HW226016   2.333   3.273   1.941
 7057SOL     OW26017   3.526   3.142   2.519
 7057SOL    HW126018   3.625   3.150   2.533
 7057SOL    HW226019   3.481   3.226   2.550
 7058SOL     OW26020   3.252   2.437   1.940
 7058SOL    HW126021   3.198   2.416   2.021
 7058SOL    HW226022   3.343   2.396   1.949
 7059SOL     OW26023   2.389   2.118   2.190
 7059SOL    HW126024   2.416   2.059   2.115
 7059SOL    HW226025   2.389   2.213   2.159
 7060SOL     OW26026   3.616   3.085   3.450
 7060SOL    HW126027   3.707   3.046   3.437
 7060SOL    HW226028   3.624   3.181   3.474
 7061SOL     OW26029   2.926   3.209   3.202
 7061SOL    HW126030   2.846   3.186   3.257
 7061SOL    HW226031   3.009   3.183   3.251
 7062SOL     OW26032   3.454   3.491   3.487
 7062SOL    HW126033   3.481   3.525   3.397
 7062SOL    HW226034   3.533   3.453   3.533
 7063SOL     OW26035   2.973   3.057   2.962
 7063SOL    HW126036   2.933   3.101   3.043
 7063SOL    HW226037   2.932   3.094   2.879
 7064SOL     OW26038   3.500   2.961   2.941
 7064SOL    HW126039   3.505   3.042   3.000
 7064SOL    HW226040   3.414   2.963   2.890
 7065SOL     OW26041   2.777   1.951   3.264
 7065SOL    HW126042   2.802   1.931   3.169
 7065SOL    HW226043   2.849   2.007   3.306
 7066SOL     OW26044   2.842   2.978   3.581
 7066SOL    HW126045   2.743   2.984   3.591
 7066SOL    HW226046   2.865   2.898   3.525
 7067SOL     OW26047   2.567   2.912   2.230
 7067SOL    HW126048   2.553   2.919   2.329
 7067SOL    HW226049   2.651   2.861   2.212
 7068SOL     OW26050   3.136   2.248   3.124
 7068SOL    HW126051   3.157   2.322   3.188
 7068SOL    HW226052   3.047   2.265   3.081
 7069SOL     OW26053   1.926   3.426   3.193
 7069SOL    HW126054   1.880   3.508   3.159
 7069SOL    HW226055   2.024   3.445   3.202
 7070SOL     OW26056   2.229   2.962   2.363
 7070SOL    HW126057   2.222   3.045   2.307
 7070SOL    HW226058   2.233   2.882   2.303
 7071SOL     OW26059   2.428   2.399   2.727
 7071SOL    HW126060   2.440   2.465   2.653
 7071SOL    HW226061   2.474   2.433   2.810
 7072SOL     OW26062   3.114   3.210   2.250
 7072SOL    HW126063   3.164   3.287   2.290
 7072SOL    HW226064   3.019   3.212   2.282
 7073SOL     OW26065   3.134   3.307   3.004
 7073SOL    HW126066   3.181   3.320   3.091
 7073SOL    HW226067   3.068   3.233   3.013
 7074SOL     OW26068   3.444   2.501   2.334
 7074SOL    HW126069   3.413   2.562   2.407
 7074SOL    HW226070   3.494   2.553   2.265
 7075SOL     OW26071   2.216   3.372   3.191
 7075SOL    HW126072   2.195   3.328   3.104
 7075SOL    HW226073   2.313   3.398   3.194
 7076SOL     OW26074   2.264   2.613   3.460
 7076SOL    HW126075   2.332   2.668   3.413
 7076SOL    HW226076   2.304   2.525   3.487
 7077SOL     OW26077   3.449   2.641   3.532
 7077SOL    HW126078   3.357   2.679   3.527
 7077SOL    HW226079   3.509   2.688   3.467
 7078SOL     OW26080   2.875   1.967   3.632
 7078SOL    HW126081   2.881   2.052   3.580
 7078SOL    HW226082   2.907   1.891   3.575
 7079SOL     OW26083   2.366   1.912   3.602
 7079SOL    HW126084   2.324   1.855   3.532
 7079SOL    HW226085   2.300   1.981   3.634
 7080SOL     OW26086   3.222   2.724   2.907
 7080SOL    HW126087   3.147   2.724   2.841
 7080SOL    HW226088   3.259   2.632   2.916
 7081SOL     OW26089   3.071   2.387   2.137
 7081SOL    HW126090   3.084   2.303   2.191
 7081SOL    HW226091   3.042   2.461   2.197
 7082SOL     OW26092   2.169   2.075   3.093
 7082SOL    HW126093   2.146   2.112   3.183
 7082SOL    HW226094   2.139   1.980   3.087
 7083SOL     OW26095   1.899   3.172   3.144
 7083SOL    HW126096   1.952   3.123   3.212
 7083SOL    HW226097   1.921   3.270   3.149
 7084SOL     OW26098   2.594   2.496   2.926
 7084SOL    HW126099   2.653   2.470   2.850
 7084SOL    HW226100   2.566   2.592   2.915
 7085SOL     OW26101   3.590   2.797   3.716
 7085SOL    HW126102   3.544   2.790   3.627
 7085SOL    HW226103   3.528   2.841   3.782
 7086SOL     OW26104   3.484   2.229   2.236
 7086SOL    HW126105   3.486   2.153   2.300
 7086SOL    HW226106   3.436   2.306   2.276
 7087SOL     OW26107   2.885   2.628   2.828
 7087SOL    HW126108   2.900   2.649   2.924
 7087SOL    HW226109   2.855   2.533   2.819
 7088SOL     OW26110   2.842   3.435   3.562
 7088SOL    HW126111   2.822   3.479   3.474
 7088SOL    HW226112   2.881   3.344   3.546
 7089SOL     OW26113   3.721   3.380   3.467
 7089SOL    HW126114   3.735   3.407   3.372
 7089SOL    HW226115   3.804   3.402   3.520
 7090SOL     OW26116   2.212   2.760   3.666
 7090SOL    HW126117   2.288   2.804   3.714
 7090SOL    HW226118   2.247   2.713   3.584
 7091SOL     OW26119   3.402   2.136   1.987
 7091SOL    HW126120   3.341   2.061   2.010
 7091SOL    HW226121   3.424   2.188   2.070
 7092SOL     OW26122   3.165   2.700   1.904
 7092SOL    HW126123   3.199   2.607   1.919
 7092SOL    HW226124   3.183   2.727   1.809
 7093SOL     OW26125   2.930   3.195   2.711
 7093SOL    HW126126   2.937   3.111   2.656
 7093SOL    HW226127   2.992   3.264   2.675
 7094SOL     OW26128   2.201   2.371   2.868
 7094SOL    HW126129   2.149   2.288   2.851
 7094SOL    HW226130   2.278   2.376   2.804
 7095SOL     OW26131   3.000   2.242   3.540
 7095SOL    HW126132   2.955   2.305   3.604
 7095SOL    HW226133   3.093   2.273   3.523
 7096SOL     OW26134   3.022   2.069   3.339
 7096SOL    HW126135   3.022   2.133   3.416
 7096SOL    HW226136   3.050   2.117   3.256
 7097SOL     OW26137   1.870   3.188   2.062
 7097SOL    HW126138   1.777   3.209   2.031
 7097SOL    HW226139   1.880   3.089   2.075
 7098SOL     OW26140   1.950   3.663   2.789
 7098SOL    HW126141   1.908   3.577   2.762
 7098SOL    HW226142   2.044   3.666   2.755
 7099SOL     OW26143   2.366   3.430   2.772
 7099SOL    HW126144   2.432   3.504   2.781
 7099SOL    HW226145   2.410   3.351   2.730
 7100SOL     OW26146   2.864   2.658   3.100
 7100SOL    HW126147   2.905   2.626   3.186
 7100SOL    HW226148   2.768   2.631   3.097
 7101SOL     OW26149   2.051   2.382   3.584
 7101SOL    HW126150   2.110   2.342   3.514
 7101SOL    HW226151   1.993   2.453   3.543
 7102SOL     OW26152   3.231   2.812   3.522
 7102SOL    HW126153   3.270   2.901   3.542
 7102SOL    HW226154   3.241   2.792   3.425
 7103SOL     OW26155   2.677   2.434   2.187
 7103SOL    HW126156   2.684   2.345   2.141
 7103SOL    HW226157   2.583   2.468   2.179
 7104SOL     OW26158   3.519   2.466   3.068
 7104SOL    HW126159   3.481   2.397   3.130
 7104SOL    HW226160   3.601   2.430   3.024
 7105SOL     OW26161   2.114   3.426   3.606
 7105SOL    HW126162   2.084   3.483   3.682
 7105SOL    HW226163   2.107   3.329   3.632
 7106SOL     OW26164   2.533   2.326   3.131
 7106SOL    HW126165   2.499   2.237   3.101
 7106SOL    HW226166   2.559   2.380   3.051
 7107SOL     OW26167   2.792   3.540   3.327
 7107SOL    HW126168   2.768   3.522   3.232
 7107SOL    HW226169   2.822   3.634   3.337
 7108SOL     OW26170   2.335   2.362   2.053
 7108SOL    HW126171   2.396   2.442   2.057
 7108SOL    HW226172   2.240   2.393   2.060
 7109SOL     OW26173   2.021   2.999   3.328
 7109SOL    HW126174   2.043   2.938   3.404
 7109SOL    HW226175   2.031   2.950   3.242
 7110SOL     OW26176   3.209   2.921   3.096
 7110SOL    HW126177   3.233   2.858   3.022
 7110SOL    HW226178   3.119   2.961   3.078
 7111SOL     OW26179   3.164   2.717   2.171
 7111SOL    HW126180   3.078   2.686   2.213
 7111SOL    HW226181   3.160   2.703   2.072
 7112SOL     OW26182   3.621   3.609   3.016
 7112SOL    HW126183   3.682   3.639   2.943
 7112SOL    HW226184   3.583   3.520   2.994
 7113SOL     OW26185   3.114   3.593   2.990
 7113SOL    HW126186   3.198   3.598   2.936
 7113SOL    HW226187   3.091   3.497   3.008
 7114SOL     OW26188   1.945   3.120   2.884
 7114SOL    HW126189   1.940   3.119   2.984
 7114SOL    HW226190   1.862   3.079   2.846
 7115SOL     OW26191   2.550   3.524   3.578
 7115SOL    HW126192   2.494   3.605   3.587
 7115SOL    HW226193   2.602   3.528   3.492
 7116SOL     OW26194   3.588   1.997   2.385
 7116SOL    HW126195   3.661   1.980   2.318
 7116SOL    HW226196   3.557   1.910   2.423
 7117SOL     OW26197   3.250   3.435   2.339
 7117SOL    HW126198   3.317   3.447   2.265
 7117SOL    HW226199   3.210   3.524   2.362
 7118SOL     OW26200   1.992   3.656   3.713
 7118SOL    HW126201   1.951   3.582   3.766
 7118SOL    HW226202   2.056   3.707   3.771
 7119SOL     OW26203   3.142   2.789   2.534
 7119SOL    HW126204   3.202   2.708   2.536
 7119SOL    HW226205   3.182   2.858   2.474
 7120SOL     OW26206   2.692   3.135   3.284
 7120SOL    HW126207   2.687   3.168   3.379
 7120SOL    HW226208   2.606   3.154   3.238
 7121SOL     OW26209   2.534   3.478   2.016
 7121SOL    HW126210   2.543   3.488   1.917
 7121SOL    HW226211   2.494   3.389   2.037
 7122SOL     OW26212   3.512   3.582   3.256
 7122SOL    HW126213   3.565   3.592   3.172
 7122SOL    HW226214   3.485   3.672   3.290
 7123SOL     OW26215   3.703   2.037   2.825
 7123SOL    HW126216   3.742   1.952   2.789
 7123SOL    HW226217   3.605   2.039   2.806
 7124SOL     OW26218   2.125   2.188   2.582
 7124SOL    HW126219   2.046   2.239   2.548
 7124SOL    HW226220   2.116   2.173   2.680
 7125SOL     OW26221   3.056   3.474   1.893
 7125SOL    HW126222   3.062   3.381   1.930
 7125SOL    HW226223   2.997   3.474   1.813
 7126SOL     OW26224   2.684   2.864   3.234
 7126SOL    HW126225   2.724   2.863   3.142
 7126SOL    HW226226   2.694   2.956   3.274
 7127SOL     OW26227   2.778   2.772   2.153
 7127SOL    HW126228   2.841   2.810   2.085
 7127SOL    HW226229   2.818   2.689   2.192
 7128SOL     OW26230   3.366   3.469   1.906
 7128SOL    HW126231   3.274   3.506   1.913
 7128SOL    HW226232   3.404   3.489   1.816
 7129SOL     OW26233   2.234   3.150   3.352
 7129SOL    HW126234   2.221   3.243   3.318
 7129SOL    HW226235   2.150   3.098   3.339
 7130SOL     OW26236   3.476   3.154   3.151
 7130SOL    HW126237   3.536   3.157   3.231
 7130SOL    HW226238   3.401   3.218   3.164
 7131SOL     OW26239   2.901   2.960   2.558
 7131SOL    HW126240   2.831   2.913   2.612
 7131SOL    HW226241   2.960   2.892   2.515
 7132SOL     OW26242   2.876   2.098   2.833
 7132SOL    HW126243   2.868   2.062   2.740
 7132SOL    HW226244   2.874   2.022   2.898
 7133SOL     OW26245   2.452   3.349   2.353
 7133SOL    HW126246   2.494   3.291   2.283
 7133SOL    HW226247   2.408   3.428   2.309
 7134SOL     OW26248   3.571   2.247   3.243
 7134SOL    HW126249   3.644   2.316   3.247
 7134SOL    HW226250   3.599   2.172   3.184
 7135SOL     OW26251   2.117   3.210   2.152
 7135SOL    HW126252   2.021   3.211   2.125
 7135SOL    HW226253   2.129   3.263   2.236
 7136SOL     OW26254   1.967   2.875   3.588
 7136SOL    HW126255   1.890   2.842   3.642
 7136SOL    HW226256   2.052   2.845   3.630
 7137SOL     OW26257   2.534   2.065   3.351
 7137SOL    HW126258   2.624   2.049   3.311
 7137SOL    HW226259   2.542   2.070   3.450
 7138SOL     OW26260   1.937   2.207   1.895
 7138SOL    HW126261   1.845   2.179   1.866
 7138SOL    HW226262   1.968   2.284   1.839
 7139SOL     OW26263   3.302   2.718   3.260
 7139SOL    HW126264   3.245   2.770   3.197
 7139SOL    HW226265   3.398   2.730   3.236
 7140SOL     OW26266   1.934   2.028   2.180
 7140SOL    HW126267   1.917   2.111   2.126
 7140SOL    HW226268   2.024   1.991   2.158
 7141SOL     OW26269   3.045   3.197   1.981
 7141SOL    HW126270   2.946   3.186   1.983
 7141SOL    HW226271   3.079   3.212   2.074
 7142SOL     OW26272   2.475   2.704   3.293
 7142SOL    HW126273   2.531   2.785   3.276
 7142SOL    HW226274   2.534   2.624   3.296
 7143SOL     OW26275   3.355   3.629   2.821
 7143SOL    HW126276   3.388   3.693   2.752
 7143SOL    HW226277   3.421   3.623   2.896
 7144SOL     OW26278   2.578   2.427   3.570
 7144SOL    HW126279   2.597   2.492   3.644
 7144SOL    HW226280   2.638   2.347   3.579
 7145SOL     OW26281   3.312   3.082   3.495
 7145SOL    HW126282   3.303   3.072   3.594
 7145SOL    HW226283   3.408   3.075   3.469
 7146SOL     OW26284   2.252   3.603   3.422
 7146SOL    HW126285   2.161   3.644   3.420
 7146SOL    HW226286   2.245   3.509   3.454
 7147SOL     OW26287   3.536   2.745   3.116
 7147SOL    HW126288   3.509   2.656   3.079
 7147SOL    HW226289   3.537   2.813   3.043
 7148SOL     OW26290   3.087   2.187   2.311
 7148SOL    HW126291   3.152   2.113   2.300
 7148SOL    HW226292   3.107   2.237   2.395
 7149SOL     OW26293   2.456   2.607   2.514
 7149SOL    HW126294   2.506   2.692   2.495
 7149SOL    HW226295   2.368   2.609   2.466
 7150SOL     OW26296   3.639   2.204   3.504
 7150SOL    HW126297   3.622   2.235   3.410
 7150SOL    HW226298   3.555   2.167   3.542
 7151SOL     OW26299   3.592   2.796   3.379
 7151SOL    HW126300   3.630   2.887   3.394
 7151SOL    HW226301   3.584   2.779   3.280
 7152SOL     OW26302   2.721   3.236   1.878
 7152SOL    HW126303   2.675   3.251   1.966
 7152SOL    HW226304   2.765   3.321   1.848
 7153SOL     OW26305   2.523   3.652   2.815
 7153SOL    HW126306   2.477   3.740   2.802
 7153SOL    HW226307   2.622   3.664   2.808
 7154SOL     OW26308   2.721   2.818   2.723
 7154SOL    HW126309   2.775   2.749   2.771
 7154SOL    HW226310   2.689   2.887   2.789
 7155SOL     OW26311   2.945   2.846   1.949
 7155SOL    HW126312   2.922   2.899   1.867
 7155SOL    HW226313   3.026   2.790   1.930
 7156SOL     OW26314   3.723   3.431   2.713
 7156SOL    HW126315   3.652   3.419   2.643
 7156SOL    HW226316   3.724   3.352   2.773
 7157SOL     OW26317   2.083   3.176   3.706
 7157SOL    HW126318   2.018   3.103   3.685
 7157SOL    HW226319   2.087   3.190   3.804
 7158SOL     OW26320   1.941   3.102   2.515
 7158SOL    HW126321   1.940   3.055   2.603
 7158SOL    HW226322   2.023   3.074   2.464
 7159SOL     OW26323   2.534   3.253   3.486
 7159SOL    HW126324   2.456   3.203   3.524
 7159SOL    HW226325   2.531   3.348   3.517
 7160SOL     OW26326   3.686   2.054   3.089
 7160SOL    HW126327   3.682   1.964   3.133
 7160SOL    HW226328   3.689   2.043   2.990
 7161SOL     OW26329   2.290   2.286   2.382
 7161SOL    HW126330   2.320   2.214   2.320
 7161SOL    HW226331   2.251   2.246   2.465
 7162SOL     OW26332   3.567   3.349   2.966
 7162SOL    HW126333   3.474   3.324   2.939
 7162SOL    HW226334   3.593   3.299   3.048
 7163SOL     OW26335   2.179   2.409   3.142
 7163SOL    HW126336   2.217   2.350   3.214
 7163SOL    HW226337   2.219   2.383   3.054
 7164SOL     OW26338   2.674   3.448   2.549
 7164SOL    HW126339   2.706   3.458   2.455
 7164SOL    HW226340   2.595   3.386   2.551
 7165SOL     OW26341   2.863   1.896   3.016
 7165SOL    HW126342   2.800   1.824   2.985
 7165SOL    HW226343   2.956   1.860   3.016
 7166SOL     OW26344   2.632   3.192   2.163
 7166SOL    HW126345   2.586   3.105   2.180
 7166SOL    HW226346   2.723   3.189   2.204
 7167SOL     OW26347   2.480   3.429   3.146
 7167SOL    HW126348   2.475   3.511   3.203
 7167SOL    HW226349   2.569   3.426   3.101
 7168SOL     OW26350   3.214   1.914   2.030
 7168SOL    HW126351   3.249   1.873   1.946
 7168SOL    HW226352   3.124   1.876   2.050
 7169SOL     OW26353   3.162   2.315   2.553
 7169SOL    HW126354   3.103   2.395   2.557
 7169SOL    HW226355   3.177   2.280   2.646
 7170SOL     OW26356   3.455   2.083   2.744
 7170SOL    HW126357   3.371   2.082   2.798
 7170SOL    HW226358   3.457   2.166   2.688
 7171SOL     OW26359   1.901   2.939   2.162
 7171SOL    HW126360   2.000   2.928   2.153
 7171SOL    HW226361   1.861   2.853   2.194
 7172SOL     OW26362   2.737   3.508   2.199
 7172SOL    HW126363   2.660   3.473   2.145
 7172SOL    HW226364   2.705   3.579   2.261
 7173SOL     OW26365   2.092   2.490   3.837
 7173SOL    HW126366   1.999   2.488   3.874
 7173SOL    HW226367   2.093   2.451   3.745
 7174SOL     OW26368   2.087   2.137   4.720
 7174SOL    HW126369   2.122   2.120   4.812
 7174SOL    HW226370   1.999   2.092   4.708
 7175SOL     OW26371   1.881   2.230   4.371
 7175SOL    HW126372   1.799   2.273   4.410
 7175SOL    HW226373   1.853   2.157   4.308
 7176SOL     OW26374   3.417   3.373   4.427
 7176SOL    HW126375   3.360   3.357   4.508
 7176SOL    HW226376   3.358   3.383   4.347
 7177SOL     OW26377   2.997   2.565   4.441
 7177SOL    HW126378   3.054   2.643   4.416
 7177SOL    HW226379   2.937   2.591   4.517
 7178SOL     OW26380   3.617   2.469   3.955
 7178SOL    HW126381   3.605   2.456   3.856
 7178SOL    HW226382   3.587   2.388   4.004
 7179SOL     OW26383   2.630   3.006   4.747
 7179SOL    HW126384   2.552   3.023   4.807
 7179SOL    HW226385   2.664   3.093   4.711
 7180SOL     OW26386   2.712   2.660   5.547
 7180SOL    HW126387   2.708   2.736   5.612
 7180SOL    HW226388   2.734   2.696   5.456
 7181SOL     OW26389   2.547   2.874   4.389
 7181SOL    HW126390   2.616   2.858   4.459
 7181SOL    HW226391   2.474   2.931   4.427
 7182SOL     OW26392   2.548   3.023   5.527
 7182SOL    HW126393   2.608   3.102   5.541
 7182SOL    HW226394   2.462   3.054   5.486
 7183SOL     OW26395   3.322   3.367   5.063
 7183SOL    HW126396   3.346   3.461   5.089
 7183SOL    HW226397   3.306   3.313   5.145
 7184SOL     OW26398   2.300   2.254   5.223
 7184SOL    HW126399   2.382   2.198   5.232
 7184SOL    HW226400   2.219   2.196   5.227
 7185SOL     OW26401   3.465   2.309   4.461
 7185SOL    HW126402   3.391   2.355   4.411
 7185SOL    HW226403   3.516   2.377   4.514
 7186SOL     OW26404   2.093   3.575   4.207
 7186SOL    HW126405   2.127   3.652   4.261
 7186SOL    HW226406   2.137   3.575   4.117
 7187SOL     OW26407   2.989   3.203   5.414
 7187SOL    HW126408   3.036   3.203   5.502
 7187SOL    HW226409   2.941   3.116   5.403
 7188SOL     OW26410   2.092   3.296   4.262
 7188SOL    HW126411   2.066   3.392   4.262
 7188SOL    HW226412   2.021   3.242   4.307
 7189SOL     OW26413   2.482   3.648   5.163
 7189SOL    HW126414   2.390   3.631   5.198
 7189SOL    HW226415   2.510   3.740   5.189
 7190SOL     OW26416   2.468   2.826   3.847
 7190SOL    HW126417   2.475   2.910   3.793
 7190SOL    HW226418   2.514   2.839   3.935
 7191SOL     OW26419   3.456   1.976   5.204
 7191SOL    HW126420   3.438   2.043   5.132
 7191SOL    HW226421   3.453   2.022   5.293
 7192SOL     OW26422   1.984   2.505   4.287
 7192SOL    HW126423   1.939   2.417   4.304
 7192SOL    HW226424   1.983   2.559   4.371
 7193SOL     OW26425   3.704   3.629   4.083
 7193SOL    HW126426   3.758   3.600   4.163
 7193SOL    HW226427   3.734   3.719   4.054
 7194SOL     OW26428   1.889   3.458   3.841
 7194SOL    HW126429   1.870   3.362   3.862
 7194SOL    HW226430   1.856   3.516   3.916
 7195SOL     OW26431   3.551   2.784   4.336
 7195SOL    HW126432   3.646   2.755   4.344
 7195SOL    HW226433   3.543   2.849   4.261
 7196SOL     OW26434   3.503   2.970   4.156
 7196SOL    HW126435   3.589   2.972   4.104
 7196SOL    HW226436   3.517   3.017   4.244
 7197SOL     OW26437   1.975   2.599   5.321
 7197SOL    HW126438   2.063   2.586   5.366
 7197SOL    HW226439   1.962   2.696   5.299
 7198SOL     OW26440   3.155   3.090   5.147
 7198SOL    HW126441   3.192   3.017   5.089
 7198SOL    HW226442   3.207   3.095   5.232
 7199SOL     OW26443   2.671   1.866   4.226
 7199SOL    HW126444   2.711   1.957   4.217
 7199SOL    HW226445   2.571   1.874   4.232
 7200SOL     OW26446   2.059   2.838   4.988
 7200SOL    HW126447   2.148   2.793   4.974
 7200SOL    HW226448   1.986   2.773   4.969
 7201SOL     OW26449   3.387   2.861   3.914
 7201SOL    HW126450   3.324   2.785   3.927
 7201SOL    HW226451   3.435   2.879   4.000
 7202SOL     OW26452   3.049   3.654   5.340
 7202SOL    HW126453   3.073   3.714   5.264
 7202SOL    HW226454   3.056   3.559   5.310
 7203SOL     OW26455   3.328   3.279   4.677
 7203SOL    HW126456   3.269   3.285   4.757
 7203SOL    HW226457   3.313   3.191   4.631
 7204SOL     OW26458   3.529   3.576   4.296
 7204SOL    HW126459   3.488   3.553   4.208
 7204SOL    HW226460   3.511   3.502   4.361
 7205SOL     OW26461   2.460   2.591   3.994
 7205SOL    HW126462   2.484   2.660   3.926
 7205SOL    HW226463   2.382   2.624   4.048
 7206SOL     OW26464   3.143   2.207   4.668
 7206SOL    HW126465   3.057   2.157   4.655
 7206SOL    HW226466   3.205   2.153   4.724
 7207SOL     OW26467   3.438   3.524   4.031
 7207SOL    HW126468   3.527   3.570   4.034
 7207SOL    HW226469   3.417   3.500   3.936
 7208SOL     OW26470   2.669   2.467   5.189
 7208SOL    HW126471   2.622   2.464   5.278
 7208SOL    HW226472   2.618   2.412   5.123
 7209SOL     OW26473   3.256   2.331   5.398
 7209SOL    HW126474   3.236   2.374   5.486
 7209SOL    HW226475   3.334   2.269   5.407
 7210SOL     OW26476   2.835   2.752   5.296
 7210SOL    HW126477   2.881   2.668   5.267
 7210SOL    HW226478   2.779   2.786   5.221
 7211SOL     OW26479   2.853   2.272   4.966
 7211SOL    HW126480   2.776   2.306   5.020
 7211SOL    HW226481   2.819   2.221   4.887
 7212SOL     OW26482   2.903   2.563   4.153
 7212SOL    HW126483   2.929   2.559   4.249
 7212SOL    HW226484   2.818   2.512   4.139
 7213SOL     OW26485   1.938   2.673   4.513
 7213SOL    HW126486   2.037   2.661   4.522
 7213SOL    HW226487   1.914   2.768   4.534
 7214SOL     OW26488   1.992   3.683   5.295
 7214SOL    HW126489   1.982   3.668   5.394
 7214SOL    HW226490   1.906   3.719   5.259
 7215SOL     OW26491   2.727   2.210   3.919
 7215SOL    HW126492   2.786   2.273   3.870
 7215SOL    HW226493   2.746   2.116   3.890
 7216SOL     OW26494   3.224   3.006   4.269
 7216SOL    HW126495   3.307   2.977   4.221
 7216SOL    HW226496   3.175   3.073   4.213
 7217SOL     OW26497   2.412   2.058   4.609
 7217SOL    HW126498   2.407   2.053   4.709
 7217SOL    HW226499   2.414   2.154   4.580
 7218SOL     OW26500   2.870   3.318   4.201
 7218SOL    HW126501   2.824   3.390   4.149
 7218SOL    HW226502   2.866   3.338   4.299
 7219SOL     OW26503   2.213   3.663   4.577
 7219SOL    HW126504   2.263   3.577   4.583
 7219SOL    HW226505   2.278   3.740   4.574
 7220SOL     OW26506   3.657   2.928   4.597
 7220SOL    HW126507   3.595   2.913   4.521
 7220SOL    HW226508   3.605   2.939   4.682
 7221SOL     OW26509   3.089   3.412   5.230
 7221SOL    HW126510   3.095   3.335   5.294
 7221SOL    HW226511   3.037   3.386   5.150
 7222SOL     OW26512   2.183   2.805   3.966
 7222SOL    HW126513   2.265   2.844   3.924
 7222SOL    HW226514   2.156   2.723   3.917
 7223SOL     OW26515   3.320   2.597   4.452
 7223SOL    HW126516   3.315   2.532   4.527
 7223SOL    HW226517   3.400   2.656   4.465
 7224SOL     OW26518   2.323   3.128   5.451
 7224SOL    HW126519   2.273   3.129   5.365
 7224SOL    HW226520   2.260   3.110   5.527
 7225SOL     OW26521   2.973   3.638   3.961
 7225SOL    HW126522   2.913   3.576   4.011
 7225SOL    HW226523   3.004   3.594   3.876
 7226SOL     OW26524   2.064   2.147   5.222
 7226SOL    HW126525   1.984   2.207   5.209
 7226SOL    HW226526   2.054   2.098   5.308
 7227SOL     OW26527   3.494   3.239   3.805
 7227SOL    HW126528   3.462   3.333   3.795
 7227SOL    HW226529   3.418   3.176   3.793
 7228SOL     OW26530   2.326   3.605   4.047
 7228SOL    HW126531   2.359   3.644   4.133
 7228SOL    HW226532   2.402   3.598   3.982
 7229SOL     OW26533   3.262   1.969   4.150
 7229SOL    HW126534   3.238   1.932   4.060
 7229SOL    HW226535   3.361   1.985   4.154
 7230SOL     OW26536   2.111   3.647   4.965
 7230SOL    HW126537   2.168   3.582   5.015
 7230SOL    HW226538   2.095   3.614   4.872
 7231SOL     OW26539   2.802   3.560   4.628
 7231SOL    HW126540   2.882   3.503   4.649
 7231SOL    HW226541   2.753   3.520   4.551
 7232SOL     OW26542   2.244   2.562   4.204
 7232SOL    HW126543   2.289   2.472   4.201
 7232SOL    HW226544   2.150   2.551   4.237
 7233SOL     OW26545   3.409   2.084   5.453
 7233SOL    HW126546   3.404   2.121   5.545
 7233SOL    HW226547   3.337   2.015   5.441
 7234SOL     OW26548   2.476   1.984   3.841
 7234SOL    HW126549   2.574   1.962   3.848
 7234SOL    HW226550   2.445   1.967   3.748
 7235SOL     OW26551   2.643   2.126   5.473
 7235SOL    HW126552   2.710   2.065   5.516
 7235SOL    HW226553   2.570   2.145   5.538
 7236SOL     OW26554   2.750   3.376   4.919
 7236SOL    HW126555   2.727   3.351   4.825
 7236SOL    HW226556   2.811   3.307   4.958
 7237SOL     OW26557   3.213   2.452   5.157
 7237SOL    HW126558   3.241   2.409   5.242
 7237SOL    HW226559   3.238   2.548   5.158
 7238SOL     OW26560   2.665   3.264   4.648
 7238SOL    HW126561   2.755   3.278   4.606
 7238SOL    HW226562   2.594   3.266   4.577
 7239SOL     OW26563   2.784   2.365   4.623
 7239SOL    HW126564   2.759   2.356   4.527
 7239SOL    HW226565   2.832   2.283   4.654
 7240SOL     OW26566   2.401   1.926   4.236
 7240SOL    HW126567   2.320   1.927   4.294
 7240SOL    HW226568   2.404   2.009   4.181
 7241SOL     OW26569   3.296   3.050   3.765
 7241SOL    HW126570   3.328   2.974   3.822
 7241SOL    HW226571   3.204   3.077   3.795
 7242SOL     OW26572   2.159   1.897   3.895
 7242SOL    HW126573   2.208   1.981   3.874
 7242SOL    HW226574   2.221   1.832   3.940
 7243SOL     OW26575   2.938   2.545   5.188
 7243SOL    HW126576   2.858   2.484   5.191
 7243SOL    HW226577   3.019   2.492   5.164
 7244SOL     OW26578   3.089   3.432   4.517
 7244SOL    HW126579   3.110   3.506   4.452
 7244SOL    HW226580   3.157   3.432   4.590
 7245SOL     OW26581   3.133   3.659   4.315
 7245SOL    HW126582   3.177   3.723   4.251
 7245SOL    HW226583   3.083   3.711   4.385
 7246SOL     OW26584   2.894   2.411   3.740
 7246SOL    HW126585   2.853   2.493   3.701
 7246SOL    HW226586   2.958   2.437   3.813
 7247SOL     OW26587   1.940   2.418   5.110
 7247SOL    HW126588   2.032   2.417   5.069
 7247SOL    HW226589   1.934   2.492   5.177
 7248SOL     OW26590   2.423   2.084   4.871
 7248SOL    HW126591   2.461   2.000   4.908
 7248SOL    HW226592   2.335   2.103   4.915
 7249SOL     OW26593   2.728   2.316   4.366
 7249SOL    HW126594   2.696   2.388   4.304
 7249SOL    HW226595   2.752   2.235   4.313
 7250SOL     OW26596   2.879   1.901   4.477
 7250SOL    HW126597   2.807   1.906   4.408
 7250SOL    HW226598   2.855   1.832   4.546
 7251SOL     OW26599   3.291   3.035   4.591
 7251SOL    HW126600   3.236   2.951   4.584
 7251SOL    HW226601   3.317   3.064   4.499
 7252SOL     OW26602   3.328   2.452   4.716
 7252SOL    HW126603   3.298   2.357   4.723
 7252SOL    HW226604   3.401   2.468   4.782
 7253SOL     OW26605   3.719   2.695   4.101
 7253SOL    HW126606   3.761   2.631   4.165
 7253SOL    HW226607   3.681   2.644   4.023
 7254SOL     OW26608   2.350   3.247   3.898
 7254SOL    HW126609   2.263   3.232   3.945
 7254SOL    HW226610   2.333   3.273   3.803
 7255SOL     OW26611   3.252   2.437   3.802
 7255SOL    HW126612   3.198   2.416   3.883
 7255SOL    HW226613   3.343   2.396   3.811
 7256SOL     OW26614   2.389   2.118   4.052
 7256SOL    HW126615   2.416   2.059   3.977
 7256SOL    HW226616   2.389   2.213   4.021
 7257SOL     OW26617   3.616   3.085   5.312
 7257SOL    HW126618   3.707   3.046   5.299
 7257SOL    HW226619   3.624   3.181   5.336
 7258SOL     OW26620   2.926   3.209   5.064
 7258SOL    HW126621   2.846   3.186   5.119
 7258SOL    HW226622   3.009   3.183   5.113
 7259SOL     OW26623   3.454   3.491   5.349
 7259SOL    HW126624   3.481   3.525   5.259
 7259SOL    HW226625   3.533   3.453   5.395
 7260SOL     OW26626   2.973   3.057   4.824
 7260SOL    HW126627   2.933   3.101   4.905
 7260SOL    HW226628   2.932   3.094   4.741
 7261SOL     OW26629   3.500   2.961   4.803
 7261SOL    HW126630   3.505   3.042   4.862
 7261SOL    HW226631   3.414   2.963   4.752
 7262SOL     OW26632   2.777   1.951   5.126
 7262SOL    HW126633   2.802   1.931   5.031
 7262SOL    HW226634   2.849   2.007   5.168
 7263SOL     OW26635   2.842   2.978   5.443
 7263SOL    HW126636   2.743   2.984   5.453
 7263SOL    HW226637   2.865   2.898   5.387
 7264SOL     OW26638   2.567   2.912   4.092
 7264SOL    HW126639   2.553   2.919   4.191
 7264SOL    HW226640   2.651   2.861   4.074
 7265SOL     OW26641   2.272   2.675   4.975
 7265SOL    HW126642   2.358   2.687   5.025
 7265SOL    HW226643   2.230   2.588   5.002
 7266SOL     OW26644   3.136   2.248   4.986
 7266SOL    HW126645   3.157   2.322   5.050
 7266SOL    HW226646   3.047   2.265   4.943
 7267SOL     OW26647   1.926   3.426   5.055
 7267SOL    HW126648   1.880   3.508   5.021
 7267SOL    HW226649   2.024   3.445   5.064
 7268SOL     OW26650   2.229   2.962   4.225
 7268SOL    HW126651   2.222   3.045   4.169
 7268SOL    HW226652   2.233   2.882   4.165
 7269SOL     OW26653   2.428   2.399   4.589
 7269SOL    HW126654   2.440   2.465   4.515
 7269SOL    HW226655   2.474   2.433   4.672
 7270SOL     OW26656   3.114   3.210   4.112
 7270SOL    HW126657   3.164   3.287   4.152
 7270SOL    HW226658   3.019   3.212   4.144
 7271SOL     OW26659   3.134   3.307   4.866
 7271SOL    HW126660   3.181   3.320   4.953
 7271SOL    HW226661   3.068   3.233   4.875
 7272SOL     OW26662   3.444   2.501   4.196
 7272SOL    HW126663   3.413   2.562   4.269
 7272SOL    HW226664   3.494   2.553   4.127
 7273SOL     OW26665   2.264   2.613   5.322
 7273SOL    HW126666   2.332   2.668   5.275
 7273SOL    HW226667   2.304   2.525   5.349
 7274SOL     OW26668   3.449   2.641   5.394
 7274SOL    HW126669   3.357   2.679   5.389
 7274SOL    HW226670   3.509   2.688   5.329
 7275SOL     OW26671   2.875   1.967   5.494
 7275SOL    HW126672   2.881   2.052   5.442
 7275SOL    HW226673   2.907   1.891   5.437
 7276SOL     OW26674   2.366   1.912   5.464
 7276SOL    HW126675   2.324   1.855   5.394
 7276SOL    HW226676   2.300   1.981   5.496
 7277SOL     OW26677   2.435   2.732   4.753
 7277SOL    HW126678   2.479   2.821   4.744
 7277SOL    HW226679   2.372   2.732   4.830
 7278SOL     OW26680   3.222   2.724   4.769
 7278SOL    HW126681   3.147   2.724   4.703
 7278SOL    HW226682   3.259   2.632   4.778
 7279SOL     OW26683   3.071   2.387   3.999
 7279SOL    HW126684   3.084   2.303   4.053
 7279SOL    HW226685   3.042   2.461   4.059
 7280SOL     OW26686   2.169   2.075   4.955
 7280SOL    HW126687   2.146   2.112   5.045
 7280SOL    HW226688   2.139   1.980   4.949
 7281SOL     OW26689   1.899   3.172   5.006
 7281SOL    HW126690   1.952   3.123   5.074
 7281SOL    HW226691   1.921   3.270   5.011
 7282SOL     OW26692   2.594   2.496   4.788
 7282SOL    HW126693   2.653   2.470   4.712
 7282SOL    HW226694   2.566   2.592   4.777
 7283SOL     OW26695   3.590   2.797   5.578
 7283SOL    HW126696   3.544   2.790   5.489
 7283SOL    HW226697   3.528   2.841   5.644
 7284SOL     OW26698   2.169   1.925   4.342
 7284SOL    HW126699   2.158   2.019   4.375
 7284SOL    HW226700   2.164   1.862   4.419
 7285SOL     OW26701   3.484   2.229   4.098
 7285SOL    HW126702   3.486   2.153   4.162
 7285SOL    HW226703   3.436   2.306   4.138
 7286SOL     OW26704   2.885   2.628   4.690
 7286SOL    HW126705   2.900   2.649   4.786
 7286SOL    HW226706   2.855   2.533   4.681
 7287SOL     OW26707   2.842   3.435   5.424
 7287SOL    HW126708   2.822   3.479   5.336
 7287SOL    HW226709   2.881   3.344   5.408
 7288SOL     OW26710   3.721   3.380   5.329
 7288SOL    HW126711   3.735   3.407   5.234
 7288SOL    HW226712   3.804   3.402   5.382
 7289SOL     OW26713   2.212   2.760   5.528
 7289SOL    HW126714   2.288   2.804   5.576
 7289SOL    HW226715   2.247   2.713   5.446
 7290SOL     OW26716   3.402   2.136   3.849
 7290SOL    HW126717   3.341   2.061   3.872
 7290SOL    HW226718   3.424   2.188   3.932
 7291SOL     OW26719   3.165   2.700   3.766
 7291SOL    HW126720   3.199   2.607   3.781
 7291SOL    HW226721   3.183   2.727   3.671
 7292SOL     OW26722   2.930   3.195   4.573
 7292SOL    HW126723   2.937   3.111   4.518
 7292SOL    HW226724   2.992   3.264   4.537
 7293SOL     OW26725   2.181   2.672   4.673
 7293SOL    HW126726   2.274   2.708   4.678
 7293SOL    HW226727   2.175   2.587   4.725
 7294SOL     OW26728   2.201   2.371   4.730
 7294SOL    HW126729   2.149   2.288   4.713
 7294SOL    HW226730   2.278   2.376   4.666
 7295SOL     OW26731   3.000   2.242   5.402
 7295SOL    HW126732   2.955   2.305   5.466
 7295SOL    HW226733   3.093   2.273   5.385
 7296SOL     OW26734   3.022   2.069   5.201
 7296SOL    HW126735   3.022   2.133   5.278
 7296SOL    HW226736   3.050   2.117   5.118
 7297SOL     OW26737   1.870   3.188   3.924
 7297SOL    HW126738   1.777   3.209   3.893
 7297SOL    HW226739   1.880   3.089   3.937
 7298SOL     OW26740   1.950   3.663   4.651
 7298SOL    HW126741   1.908   3.577   4.624
 7298SOL    HW226742   2.044   3.666   4.617
 7299SOL     OW26743   2.366   3.430   4.634
 7299SOL    HW126744   2.432   3.504   4.643
 7299SOL    HW226745   2.410   3.351   4.592
 7300SOL     OW26746   2.864   2.658   4.962
 7300SOL    HW126747   2.905   2.626   5.048
 7300SOL    HW226748   2.768   2.631   4.959
 7301SOL     OW26749   1.902   2.406   4.838
 7301SOL    HW126750   1.987   2.373   4.797
 7301SOL    HW226751   1.915   2.421   4.936
 7302SOL     OW26752   2.051   2.382   5.446
 7302SOL    HW126753   2.110   2.342   5.376
 7302SOL    HW226754   1.993   2.453   5.405
 7303SOL     OW26755   3.231   2.812   5.384
 7303SOL    HW126756   3.270   2.901   5.404
 7303SOL    HW226757   3.241   2.792   5.287
 7304SOL     OW26758   2.677   2.434   4.049
 7304SOL    HW126759   2.684   2.345   4.003
 7304SOL    HW226760   2.583   2.468   4.041
 7305SOL     OW26761   3.519   2.466   4.930
 7305SOL    HW126762   3.481   2.397   4.992
 7305SOL    HW226763   3.601   2.430   4.886
 7306SOL     OW26764   2.114   3.426   5.468
 7306SOL    HW126765   2.084   3.483   5.544
 7306SOL    HW226766   2.107   3.329   5.494
 7307SOL     OW26767   2.533   2.326   4.993
 7307SOL    HW126768   2.499   2.237   4.963
 7307SOL    HW226769   2.559   2.380   4.913
 7308SOL     OW26770   2.792   3.540   5.189
 7308SOL    HW126771   2.768   3.522   5.094
 7308SOL    HW226772   2.822   3.634   5.199
 7309SOL     OW26773   2.335   2.362   3.915
 7309SOL    HW126774   2.396   2.442   3.919
 7309SOL    HW226775   2.240   2.393   3.922
 7310SOL     OW26776   2.021   2.999   5.190
 7310SOL    HW126777   2.043   2.938   5.266
 7310SOL    HW226778   2.031   2.950   5.104
 7311SOL     OW26779   3.209   2.921   4.958
 7311SOL    HW126780   3.233   2.858   4.884
 7311SOL    HW226781   3.119   2.961   4.940
 7312SOL     OW26782   3.164   2.717   4.033
 7312SOL    HW126783   3.078   2.686   4.075
 7312SOL    HW226784   3.160   2.703   3.934
 7313SOL     OW26785   3.621   3.609   4.878
 7313SOL    HW126786   3.682   3.639   4.805
 7313SOL    HW226787   3.583   3.520   4.856
 7314SOL     OW26788   3.114   3.593   4.852
 7314SOL    HW126789   3.198   3.598   4.798
 7314SOL    HW226790   3.091   3.497   4.870
 7315SOL     OW26791   2.550   3.524   5.440
 7315SOL    HW126792   2.494   3.605   5.449
 7315SOL    HW226793   2.602   3.528   5.354
 7316SOL     OW26794   3.588   1.997   4.247
 7316SOL    HW126795   3.661   1.980   4.180
 7316SOL    HW226796   3.557   1.910   4.285
 7317SOL     OW26797   3.250   3.435   4.201
 7317SOL    HW126798   3.317   3.447   4.127
 7317SOL    HW226799   3.210   3.524   4.224
 7318SOL     OW26800   1.992   3.656   5.575
 7318SOL    HW126801   1.951   3.582   5.628
 7318SOL    HW226802   2.056   3.707   5.633
 7319SOL     OW26803   3.142   2.789   4.396
 7319SOL    HW126804   3.202   2.708   4.398
 7319SOL    HW226805   3.182   2.858   4.336
 7320SOL     OW26806   2.692   3.135   5.146
 7320SOL    HW126807   2.687   3.168   5.241
 7320SOL    HW226808   2.606   3.154   5.100
 7321SOL     OW26809   2.534   3.478   3.878
 7321SOL    HW126810   2.543   3.488   3.779
 7321SOL    HW226811   2.494   3.389   3.899
 7322SOL     OW26812   3.512   3.582   5.118
 7322SOL    HW126813   3.565   3.592   5.034
 7322SOL    HW226814   3.485   3.672   5.152
 7323SOL     OW26815   3.703   2.037   4.687
 7323SOL    HW126816   3.742   1.952   4.651
 7323SOL    HW226817   3.605   2.039   4.668
 7324SOL     OW26818   2.125   2.188   4.444
 7324SOL    HW126819   2.046   2.239   4.410
 7324SOL    HW226820   2.116   2.173   4.542
 7325SOL     OW26821   2.684   2.864   5.096
 7325SOL    HW126822   2.724   2.863   5.004
 7325SOL    HW226823   2.694   2.956   5.136
 7326SOL     OW26824   2.778   2.772   4.015
 7326SOL    HW126825   2.841   2.810   3.947
 7326SOL    HW226826   2.818   2.689   4.054
 7327SOL     OW26827   3.366   3.469   3.768
 7327SOL    HW126828   3.274   3.506   3.775
 7327SOL    HW226829   3.404   3.489   3.678
 7328SOL     OW26830   2.234   3.150   5.214
 7328SOL    HW126831   2.221   3.243   5.180
 7328SOL    HW226832   2.150   3.098   5.201
 7329SOL     OW26833   3.476   3.154   5.013
 7329SOL    HW126834   3.536   3.157   5.093
 7329SOL    HW226835   3.401   3.218   5.026
 7330SOL     OW26836   2.901   2.960   4.420
 7330SOL    HW126837   2.831   2.913   4.474
 7330SOL    HW226838   2.960   2.892   4.377
 7331SOL     OW26839   2.876   2.098   4.695
 7331SOL    HW126840   2.868   2.062   4.602
 7331SOL    HW226841   2.874   2.022   4.760
 7332SOL     OW26842   2.452   3.349   4.215
 7332SOL    HW126843   2.494   3.291   4.145
 7332SOL    HW226844   2.408   3.428   4.171
 7333SOL     OW26845   3.571   2.247   5.105
 7333SOL    HW126846   3.644   2.316   5.109
 7333SOL    HW226847   3.599   2.172   5.046
 7334SOL     OW26848   2.117   3.210   4.014
 7334SOL    HW126849   2.021   3.211   3.987
 7334SOL    HW226850   2.129   3.263   4.098
 7335SOL     OW26851   1.967   2.875   5.450
 7335SOL    HW126852   1.890   2.842   5.504
 7335SOL    HW226853   2.052   2.845   5.492
 7336SOL     OW26854   2.534   2.065   5.213
 7336SOL    HW126855   2.624   2.049   5.173
 7336SOL    HW226856   2.542   2.070   5.312
 7337SOL     OW26857   1.937   2.207   3.757
 7337SOL    HW126858   1.845   2.179   3.728
 7337SOL    HW226859   1.968   2.284   3.701
 7338SOL     OW26860   3.302   2.718   5.122
 7338SOL    HW126861   3.245   2.770   5.059
 7338SOL    HW226862   3.398   2.730   5.098
 7339SOL     OW26863   1.934   2.028   4.042
 7339SOL    HW126864   1.917   2.111   3.988
 7339SOL    HW226865   2.024   1.991   4.020
 7340SOL     OW26866   3.045   3.197   3.843
 7340SOL    HW126867   2.946   3.186   3.845
 7340SOL    HW226868   3.079   3.212   3.936
 7341SOL     OW26869   2.475   2.704   5.155
 7341SOL    HW126870   2.531   2.785   5.138
 7341SOL    HW226871   2.534   2.624   5.158
 7342SOL     OW26872   3.355   3.629   4.683
 7342SOL    HW126873   3.388   3.693   4.614
 7342SOL    HW226874   3.421   3.623   4.758
 7343SOL     OW26875   2.578   2.427   5.432
 7343SOL    HW126876   2.597   2.492   5.506
 7343SOL    HW226877   2.638   2.347   5.441
 7344SOL     OW26878   3.312   3.082   5.357
 7344SOL    HW126879   3.303   3.072   5.456
 7344SOL    HW226880   3.408   3.075   5.331
 7345SOL     OW26881   2.252   3.603   5.284
 7345SOL    HW126882   2.161   3.644   5.282
 7345SOL    HW226883   2.245   3.509   5.316
 7346SOL     OW26884   3.536   2.745   4.978
 7346SOL    HW126885   3.509   2.656   4.941
 7346SOL    HW226886   3.537   2.813   4.905
 7347SOL     OW26887   3.087   2.187   4.173
 7347SOL    HW126888   3.152   2.113   4.162
 7347SOL    HW226889   3.107   2.237   4.257
 7348SOL     OW26890   2.456   2.607   4.376
 7348SOL    HW126891   2.506   2.692   4.357
 7348SOL    HW226892   2.368   2.609   4.328
 7349SOL     OW26893   3.639   2.204   5.366
 7349SOL    HW126894   3.622   2.235   5.272
 7349SOL    HW226895   3.555   2.167   5.404
 7350SOL     OW26896   3.592   2.796   5.241
 7350SOL    HW126897   3.630   2.887   5.256
 7350SOL    HW226898   3.584   2.779   5.142
 7351SOL     OW26899   2.721   3.236   3.740
 7351SOL    HW126900   2.675   3.251   3.828
 7351SOL    HW226901   2.765   3.321   3.710
 7352SOL     OW26902   2.523   3.652   4.677
 7352SOL    HW126903   2.477   3.740   4.664
 7352SOL    HW226904   2.622   3.664   4.670
 7353SOL     OW26905   2.721   2.818   4.585
 7353SOL    HW126906   2.775   2.749   4.633
 7353SOL    HW226907   2.689   2.887   4.651
 7354SOL     OW26908   2.945   2.846   3.811
 7354SOL    HW126909   2.922   2.899   3.729
 7354SOL    HW226910   3.026   2.790   3.792
 7355SOL     OW26911   3.723   3.431   4.575
 7355SOL    HW126912   3.652   3.419   4.505
 7355SOL    HW226913   3.724   3.352   4.635
 7356SOL     OW26914   2.083   3.176   5.568
 7356SOL    HW126915   2.018   3.103   5.547
 7356SOL    HW226916   2.087   3.190   5.666
 7357SOL     OW26917   1.941   3.102   4.377
 7357SOL    HW126918   1.940   3.055   4.465
 7357SOL    HW226919   2.023   3.074   4.326
 7358SOL     OW26920   2.534   3.253   5.348
 7358SOL    HW126921   2.456   3.203   5.386
 7358SOL    HW226922   2.531   3.348   5.379
 7359SOL     OW26923   3.686   2.054   4.951
 7359SOL    HW126924   3.682   1.964   4.995
 7359SOL    HW226925   3.689   2.043   4.852
 7360SOL     OW26926   2.290   2.286   4.244
 7360SOL    HW126927   2.320   2.214   4.182
 7360SOL    HW226928   2.251   2.246   4.327
 7361SOL     OW26929   3.567   3.349   4.828
 7361SOL    HW126930   3.474   3.324   4.801
 7361SOL    HW226931   3.593   3.299   4.910
 7362SOL     OW26932   2.179   2.409   5.004
 7362SOL    HW126933   2.217   2.350   5.076
 7362SOL    HW226934   2.219   2.383   4.916
 7363SOL     OW26935   2.674   3.448   4.411
 7363SOL    HW126936   2.706   3.458   4.317
 7363SOL    HW226937   2.595   3.386   4.413
 7364SOL     OW26938   3.286   2.076   4.836
 7364SOL    HW126939   3.338   2.011   4.891
 7364SOL    HW226940   3.237   2.139   4.897
 7365SOL     OW26941   2.863   1.896   4.878
 7365SOL    HW126942   2.800   1.824   4.847
 7365SOL    HW226943   2.956   1.860   4.878
 7366SOL     OW26944   2.632   3.192   4.025
 7366SOL    HW126945   2.586   3.105   4.042
 7366SOL    HW226946   2.723   3.189   4.066
 7367SOL     OW26947   2.480   3.429   5.008
 7367SOL    HW126948   2.475   3.511   5.065
 7367SOL    HW226949   2.569   3.426   4.963
 7368SOL     OW26950   3.214   1.914   3.892
 7368SOL    HW126951   3.249   1.873   3.808
 7368SOL    HW226952   3.124   1.876   3.912
 7369SOL     OW26953   3.162   2.315   4.415
 7369SOL    HW126954   3.103   2.395   4.419
 7369SOL    HW226955   3.177   2.280   4.508
 7370SOL     OW26956   3.455   2.083   4.606
 7370SOL    HW126957   3.371   2.082   4.660
 7370SOL    HW226958   3.457   2.166   4.550
 7371SOL     OW26959   1.901   2.939   4.024
 7371SOL    HW126960   2.000   2.928   4.015
 7371SOL    HW226961   1.861   2.853   4.056
 7372SOL     OW26962   2.737   3.508   4.061
 7372SOL    HW126963   2.660   3.473   4.007
 7372SOL    HW226964   2.705   3.579   4.123
 7373SOL     OW26965   2.092   2.490   5.699
 7373SOL    HW126966   1.999   2.488   5.736
 7373SOL    HW226967   2.093   2.451   5.607
 7374SOL     OW26968   1.881   2.230   6.233
 7374SOL    HW126969   1.799   2.273   6.272
 7374SOL    HW226970   1.853   2.157   6.170
 7375SOL     OW26971   2.431   3.137   6.751
 7375SOL    HW126972   2.338   3.130   6.714
 7375SOL    HW226973   2.442   3.226   6.795
 7376SOL     OW26974   3.417   3.373   6.289
 7376SOL    HW126975   3.360   3.357   6.370
 7376SOL    HW226976   3.358   3.383   6.209
 7377SOL     OW26977   2.997   2.565   6.303
 7377SOL    HW126978   3.054   2.643   6.278
 7377SOL    HW226979   2.937   2.591   6.379
 7378SOL     OW26980   3.617   2.469   5.817
 7378SOL    HW126981   3.605   2.456   5.718
 7378SOL    HW226982   3.587   2.388   5.866
 7379SOL     OW26983   2.630   3.006   6.609
 7379SOL    HW126984   2.552   3.023   6.669
 7379SOL    HW226985   2.664   3.093   6.573
 7380SOL     OW26986   2.712   2.660   7.409
 7380SOL    HW126987   2.708   2.736   7.474
 7380SOL    HW226988   2.734   2.696   7.318
 7381SOL     OW26989   2.547   2.874   6.251
 7381SOL    HW126990   2.616   2.858   6.321
 7381SOL    HW226991   2.474   2.931   6.289
 7382SOL     OW26992   2.548   3.023   7.389
 7382SOL    HW126993   2.608   3.102   7.403
 7382SOL    HW226994   2.462   3.054   7.348
 7383SOL     OW26995   2.197   3.297   6.647
 7383SOL    HW126996   2.119   3.266   6.594
 7383SOL    HW226997   2.255   3.355   6.590
 7384SOL     OW26998   3.322   3.367   6.925
 7384SOL    HW126999   3.346   3.461   6.951
 7384SOL    HW227000   3.306   3.313   7.007
 7385SOL     OW27001   2.300   2.254   7.085
 7385SOL    HW127002   2.382   2.198   7.094
 7385SOL    HW227003   2.219   2.196   7.089
 7386SOL     OW27004   3.465   2.309   6.323
 7386SOL    HW127005   3.391   2.355   6.273
 7386SOL    HW227006   3.516   2.377   6.376
 7387SOL     OW27007   2.093   3.575   6.069
 7387SOL    HW127008   2.127   3.652   6.123
 7387SOL    HW227009   2.137   3.575   5.979
 7388SOL     OW27010   2.989   3.203   7.276
 7388SOL    HW127011   3.036   3.203   7.364
 7388SOL    HW227012   2.941   3.116   7.265
 7389SOL     OW27013   2.092   3.296   6.124
 7389SOL    HW127014   2.066   3.392   6.124
 7389SOL    HW227015   2.021   3.242   6.169
 7390SOL     OW27016   2.102   2.953   6.472
 7390SOL    HW127017   2.116   2.869   6.524
 7390SOL    HW227018   2.047   3.017   6.527
 7391SOL     OW27019   2.482   3.648   7.025
 7391SOL    HW127020   2.390   3.631   7.060
 7391SOL    HW227021   2.510   3.740   7.051
 7392SOL     OW27022   2.468   2.826   5.709
 7392SOL    HW127023   2.475   2.910   5.655
 7392SOL    HW227024   2.514   2.839   5.797
 7393SOL     OW27025   3.456   1.976   7.066
 7393SOL    HW127026   3.438   2.043   6.994
 7393SOL    HW227027   3.453   2.022   7.155
 7394SOL     OW27028   1.984   2.505   6.149
 7394SOL    HW127029   1.939   2.417   6.166
 7394SOL    HW227030   1.983   2.559   6.233
 7395SOL     OW27031   3.704   3.629   5.945
 7395SOL    HW127032   3.758   3.600   6.025
 7395SOL    HW227033   3.734   3.719   5.916
 7396SOL     OW27034   1.889   3.458   5.703
 7396SOL    HW127035   1.870   3.362   5.724
 7396SOL    HW227036   1.856   3.516   5.778
 7397SOL     OW27037   3.551   2.784   6.198
 7397SOL    HW127038   3.646   2.755   6.206
 7397SOL    HW227039   3.543   2.849   6.123
 7398SOL     OW27040   3.503   2.970   6.018
 7398SOL    HW127041   3.589   2.972   5.966
 7398SOL    HW227042   3.517   3.017   6.106
 7399SOL     OW27043   1.975   2.599   7.183
 7399SOL    HW127044   2.063   2.586   7.228
 7399SOL    HW227045   1.962   2.696   7.161
 7400SOL     OW27046   2.475   3.227   6.312
 7400SOL    HW127047   2.426   3.140   6.321
 7400SOL    HW227048   2.452   3.270   6.225
 7401SOL     OW27049   3.155   3.090   7.009
 7401SOL    HW127050   3.192   3.017   6.951
 7401SOL    HW227051   3.207   3.095   7.094
 7402SOL     OW27052   2.671   1.866   6.088
 7402SOL    HW127053   2.711   1.957   6.079
 7402SOL    HW227054   2.571   1.874   6.094
 7403SOL     OW27055   2.059   2.838   6.850
 7403SOL    HW127056   2.148   2.793   6.836
 7403SOL    HW227057   1.986   2.773   6.831
 7404SOL     OW27058   3.387   2.861   5.776
 7404SOL    HW127059   3.324   2.785   5.789
 7404SOL    HW227060   3.435   2.879   5.862
 7405SOL     OW27061   3.049   3.654   7.202
 7405SOL    HW127062   3.073   3.714   7.126
 7405SOL    HW227063   3.056   3.559   7.172
 7406SOL     OW27064   3.328   3.279   6.539
 7406SOL    HW127065   3.269   3.285   6.619
 7406SOL    HW227066   3.313   3.191   6.493
 7407SOL     OW27067   3.529   3.576   6.158
 7407SOL    HW127068   3.488   3.553   6.070
 7407SOL    HW227069   3.511   3.502   6.223
 7408SOL     OW27070   2.460   2.591   5.856
 7408SOL    HW127071   2.484   2.660   5.788
 7408SOL    HW227072   2.382   2.624   5.910
 7409SOL     OW27073   3.143   2.207   6.530
 7409SOL    HW127074   3.057   2.157   6.517
 7409SOL    HW227075   3.205   2.153   6.586
 7410SOL     OW27076   3.438   3.524   5.893
 7410SOL    HW127077   3.527   3.570   5.896
 7410SOL    HW227078   3.417   3.500   5.798
 7411SOL     OW27079   2.669   2.467   7.051
 7411SOL    HW127080   2.622   2.464   7.140
 7411SOL    HW227081   2.618   2.412   6.985
 7412SOL     OW27082   3.256   2.331   7.260
 7412SOL    HW127083   3.236   2.374   7.348
 7412SOL    HW227084   3.334   2.269   7.269
 7413SOL     OW27085   2.835   2.752   7.158
 7413SOL    HW127086   2.881   2.668   7.129
 7413SOL    HW227087   2.779   2.786   7.083
 7414SOL     OW27088   2.853   2.272   6.828
 7414SOL    HW127089   2.776   2.306   6.882
 7414SOL    HW227090   2.819   2.221   6.749
 7415SOL     OW27091   2.903   2.563   6.015
 7415SOL    HW127092   2.929   2.559   6.111
 7415SOL    HW227093   2.818   2.512   6.001
 7416SOL     OW27094   1.938   2.673   6.375
 7416SOL    HW127095   2.037   2.661   6.384
 7416SOL    HW227096   1.914   2.768   6.396
 7417SOL     OW27097   1.992   3.683   7.157
 7417SOL    HW127098   1.982   3.668   7.256
 7417SOL    HW227099   1.906   3.719   7.121
 7418SOL     OW27100   2.727   2.210   5.781
 7418SOL    HW127101   2.786   2.273   5.732
 7418SOL    HW227102   2.746   2.116   5.752
 7419SOL     OW27103   3.581   2.447   7.417
 7419SOL    HW127104   3.555   2.536   7.381
 7419SOL    HW227105   3.579   2.379   7.344
 7420SOL     OW27106   2.870   3.318   6.063
 7420SOL    HW127107   2.824   3.390   6.011
 7420SOL    HW227108   2.866   3.338   6.161
 7421SOL     OW27109   2.213   3.663   6.439
 7421SOL    HW127110   2.263   3.577   6.445
 7421SOL    HW227111   2.278   3.740   6.436
 7422SOL     OW27112   3.657   2.928   6.459
 7422SOL    HW127113   3.595   2.913   6.383
 7422SOL    HW227114   3.605   2.939   6.544
 7423SOL     OW27115   3.089   3.412   7.092
 7423SOL    HW127116   3.095   3.335   7.156
 7423SOL    HW227117   3.037   3.386   7.012
 7424SOL     OW27118   2.183   2.805   5.828
 7424SOL    HW127119   2.265   2.844   5.786
 7424SOL    HW227120   2.156   2.723   5.779
 7425SOL     OW27121   3.320   2.597   6.314
 7425SOL    HW127122   3.315   2.532   6.389
 7425SOL    HW227123   3.400   2.656   6.327
 7426SOL     OW27124   2.323   3.128   7.313
 7426SOL    HW127125   2.273   3.129   7.227
 7426SOL    HW227126   2.260   3.110   7.389
 7427SOL     OW27127   2.973   3.638   5.823
 7427SOL    HW127128   2.913   3.576   5.873
 7427SOL    HW227129   3.004   3.594   5.738
 7428SOL     OW27130   3.494   3.239   5.667
 7428SOL    HW127131   3.462   3.333   5.657
 7428SOL    HW227132   3.418   3.176   5.655
 7429SOL     OW27133   2.326   3.605   5.909
 7429SOL    HW127134   2.359   3.644   5.995
 7429SOL    HW227135   2.402   3.598   5.844
 7430SOL     OW27136   2.111   3.647   6.827
 7430SOL    HW127137   2.168   3.582   6.877
 7430SOL    HW227138   2.095   3.614   6.734
 7431SOL     OW27139   2.802   3.560   6.490
 7431SOL    HW127140   2.882   3.503   6.511
 7431SOL    HW227141   2.753   3.520   6.413
 7432SOL     OW27142   2.244   2.562   6.066
 7432SOL    HW127143   2.289   2.472   6.063
 7432SOL    HW227144   2.150   2.551   6.099
 7433SOL     OW27145   3.409   2.084   7.315
 7433SOL    HW127146   3.404   2.121   7.407
 7433SOL    HW227147   3.337   2.015   7.303
 7434SOL     OW27148   2.476   1.984   5.703
 7434SOL    HW127149   2.574   1.962   5.710
 7434SOL    HW227150   2.445   1.967   5.610
 7435SOL     OW27151   2.643   2.126   7.335
 7435SOL    HW127152   2.710   2.065   7.378
 7435SOL    HW227153   2.570   2.145   7.400
 7436SOL     OW27154   2.750   3.376   6.781
 7436SOL    HW127155   2.727   3.351   6.687
 7436SOL    HW227156   2.811   3.307   6.820
 7437SOL     OW27157   3.213   2.452   7.019
 7437SOL    HW127158   3.241   2.409   7.104
 7437SOL    HW227159   3.238   2.548   7.020
 7438SOL     OW27160   2.665   3.264   6.510
 7438SOL    HW127161   2.755   3.278   6.468
 7438SOL    HW227162   2.594   3.266   6.439
 7439SOL     OW27163   2.784   2.365   6.485
 7439SOL    HW127164   2.759   2.356   6.389
 7439SOL    HW227165   2.832   2.283   6.516
 7440SOL     OW27166   2.401   1.926   6.098
 7440SOL    HW127167   2.320   1.927   6.156
 7440SOL    HW227168   2.404   2.009   6.043
 7441SOL     OW27169   3.296   3.050   5.627
 7441SOL    HW127170   3.328   2.974   5.684
 7441SOL    HW227171   3.204   3.077   5.657
 7442SOL     OW27172   2.159   1.897   5.757
 7442SOL    HW127173   2.208   1.981   5.736
 7442SOL    HW227174   2.221   1.832   5.802
 7443SOL     OW27175   2.797   2.098   6.066
 7443SOL    HW127176   2.749   2.139   5.988
 7443SOL    HW227177   2.896   2.096   6.047
 7444SOL     OW27178   3.089   3.432   6.379
 7444SOL    HW127179   3.110   3.506   6.314
 7444SOL    HW227180   3.157   3.432   6.452
 7445SOL     OW27181   2.321   3.014   6.327
 7445SOL    HW127182   2.250   2.987   6.392
 7445SOL    HW227183   2.295   2.986   6.234
 7446SOL     OW27184   3.133   3.659   6.177
 7446SOL    HW127185   3.177   3.723   6.113
 7446SOL    HW227186   3.083   3.711   6.247
 7447SOL     OW27187   2.894   2.411   5.602
 7447SOL    HW127188   2.853   2.493   5.563
 7447SOL    HW227189   2.958   2.437   5.675
 7448SOL     OW27190   1.940   2.418   6.972
 7448SOL    HW127191   2.032   2.417   6.931
 7448SOL    HW227192   1.934   2.492   7.039
 7449SOL     OW27193   2.728   2.316   6.228
 7449SOL    HW127194   2.696   2.388   6.166
 7449SOL    HW227195   2.752   2.235   6.175
 7450SOL     OW27196   2.879   1.901   6.339
 7450SOL    HW127197   2.807   1.906   6.270
 7450SOL    HW227198   2.855   1.832   6.408
 7451SOL     OW27199   3.291   3.035   6.453
 7451SOL    HW127200   3.236   2.951   6.446
 7451SOL    HW227201   3.317   3.064   6.361
 7452SOL     OW27202   3.328   2.452   6.578
 7452SOL    HW127203   3.298   2.357   6.585
 7452SOL    HW227204   3.401   2.468   6.644
 7453SOL     OW27205   3.719   2.695   5.963
 7453SOL    HW127206   3.761   2.631   6.027
 7453SOL    HW227207   3.681   2.644   5.885
 7454SOL     OW27208   2.350   3.247   5.760
 7454SOL    HW127209   2.263   3.232   5.807
 7454SOL    HW227210   2.333   3.273   5.665
 7455SOL     OW27211   3.526   3.142   6.243
 7455SOL    HW127212   3.625   3.150   6.257
 7455SOL    HW227213   3.481   3.226   6.274
 7456SOL     OW27214   3.252   2.437   5.664
 7456SOL    HW127215   3.198   2.416   5.745
 7456SOL    HW227216   3.343   2.396   5.673
 7457SOL     OW27217   2.389   2.118   5.914
 7457SOL    HW127218   2.416   2.059   5.839
 7457SOL    HW227219   2.389   2.213   5.883
 7458SOL     OW27220   3.616   3.085   7.174
 7458SOL    HW127221   3.707   3.046   7.161
 7458SOL    HW227222   3.624   3.181   7.198
 7459SOL     OW27223   2.926   3.209   6.926
 7459SOL    HW127224   2.846   3.186   6.981
 7459SOL    HW227225   3.009   3.183   6.975
 7460SOL     OW27226   3.454   3.491   7.211
 7460SOL    HW127227   3.481   3.525   7.121
 7460SOL    HW227228   3.533   3.453   7.257
 7461SOL     OW27229   2.973   3.057   6.686
 7461SOL    HW127230   2.933   3.101   6.767
 7461SOL    HW227231   2.932   3.094   6.603
 7462SOL     OW27232   3.500   2.961   6.665
 7462SOL    HW127233   3.505   3.042   6.724
 7462SOL    HW227234   3.414   2.963   6.614
 7463SOL     OW27235   2.777   1.951   6.988
 7463SOL    HW127236   2.802   1.931   6.893
 7463SOL    HW227237   2.849   2.007   7.030
 7464SOL     OW27238   2.842   2.978   7.305
 7464SOL    HW127239   2.743   2.984   7.315
 7464SOL    HW227240   2.865   2.898   7.249
 7465SOL     OW27241   2.567   2.912   5.954
 7465SOL    HW127242   2.553   2.919   6.053
 7465SOL    HW227243   2.651   2.861   5.936
 7466SOL     OW27244   2.272   2.675   6.837
 7466SOL    HW127245   2.358   2.687   6.887
 7466SOL    HW227246   2.230   2.588   6.864
 7467SOL     OW27247   3.136   2.248   6.848
 7467SOL    HW127248   3.157   2.322   6.912
 7467SOL    HW227249   3.047   2.265   6.805
 7468SOL     OW27250   1.926   3.426   6.917
 7468SOL    HW127251   1.880   3.508   6.883
 7468SOL    HW227252   2.024   3.445   6.926
 7469SOL     OW27253   2.229   2.962   6.087
 7469SOL    HW127254   2.222   3.045   6.031
 7469SOL    HW227255   2.233   2.882   6.027
 7470SOL     OW27256   2.428   2.399   6.451
 7470SOL    HW127257   2.440   2.465   6.377
 7470SOL    HW227258   2.474   2.433   6.534
 7471SOL     OW27259   3.114   3.210   5.974
 7471SOL    HW127260   3.164   3.287   6.014
 7471SOL    HW227261   3.019   3.212   6.006
 7472SOL     OW27262   3.134   3.307   6.728
 7472SOL    HW127263   3.181   3.320   6.815
 7472SOL    HW227264   3.068   3.233   6.737
 7473SOL     OW27265   3.444   2.501   6.058
 7473SOL    HW127266   3.413   2.562   6.131
 7473SOL    HW227267   3.494   2.553   5.989
 7474SOL     OW27268   2.216   3.372   6.915
 7474SOL    HW127269   2.195   3.328   6.828
 7474SOL    HW227270   2.313   3.398   6.918
 7475SOL     OW27271   2.264   2.613   7.184
 7475SOL    HW127272   2.332   2.668   7.137
 7475SOL    HW227273   2.304   2.525   7.211
 7476SOL     OW27274   3.449   2.641   7.256
 7476SOL    HW127275   3.357   2.679   7.251
 7476SOL    HW227276   3.509   2.688   7.191
 7477SOL     OW27277   2.875   1.967   7.356
 7477SOL    HW127278   2.881   2.052   7.304
 7477SOL    HW227279   2.907   1.891   7.299
 7478SOL     OW27280   2.366   1.912   7.326
 7478SOL    HW127281   2.324   1.855   7.256
 7478SOL    HW227282   2.300   1.981   7.358
 7479SOL     OW27283   2.435   2.732   6.615
 7479SOL    HW127284   2.479   2.821   6.606
 7479SOL    HW227285   2.372   2.732   6.692
 7480SOL     OW27286   3.222   2.724   6.631
 7480SOL    HW127287   3.147   2.724   6.565
 7480SOL    HW227288   3.259   2.632   6.640
 7481SOL     OW27289   3.071   2.387   5.861
 7481SOL    HW127290   3.084   2.303   5.915
 7481SOL    HW227291   3.042   2.461   5.921
 7482SOL     OW27292   1.899   3.172   6.868
 7482SOL    HW127293   1.952   3.123   6.936
 7482SOL    HW227294   1.921   3.270   6.873
 7483SOL     OW27295   2.594   2.496   6.650
 7483SOL    HW127296   2.653   2.470   6.574
 7483SOL    HW227297   2.566   2.592   6.639
 7484SOL     OW27298   3.590   2.797   7.440
 7484SOL    HW127299   3.544   2.790   7.351
 7484SOL    HW227300   3.528   2.841   7.506
 7485SOL     OW27301   2.169   1.925   6.204
 7485SOL    HW127302   2.158   2.019   6.237
 7485SOL    HW227303   2.164   1.862   6.281
 7486SOL     OW27304   3.484   2.229   5.960
 7486SOL    HW127305   3.486   2.153   6.024
 7486SOL    HW227306   3.436   2.306   6.000
 7487SOL     OW27307   2.885   2.628   6.552
 7487SOL    HW127308   2.900   2.649   6.648
 7487SOL    HW227309   2.855   2.533   6.543
 7488SOL     OW27310   2.842   3.435   7.286
 7488SOL    HW127311   2.822   3.479   7.198
 7488SOL    HW227312   2.881   3.344   7.270
 7489SOL     OW27313   3.721   3.380   7.191
 7489SOL    HW127314   3.735   3.407   7.096
 7489SOL    HW227315   3.804   3.402   7.244
 7490SOL     OW27316   2.212   2.760   7.390
 7490SOL    HW127317   2.288   2.804   7.438
 7490SOL    HW227318   2.247   2.713   7.308
 7491SOL     OW27319   3.402   2.136   5.711
 7491SOL    HW127320   3.341   2.061   5.734
 7491SOL    HW227321   3.424   2.188   5.794
 7492SOL     OW27322   3.165   2.700   5.628
 7492SOL    HW127323   3.199   2.607   5.643
 7492SOL    HW227324   3.183   2.727   5.533
 7493SOL     OW27325   2.930   3.195   6.435
 7493SOL    HW127326   2.937   3.111   6.380
 7493SOL    HW227327   2.992   3.264   6.399
 7494SOL     OW27328   2.181   2.672   6.535
 7494SOL    HW127329   2.274   2.708   6.540
 7494SOL    HW227330   2.175   2.587   6.587
 7495SOL     OW27331   3.000   2.242   7.264
 7495SOL    HW127332   2.955   2.305   7.328
 7495SOL    HW227333   3.093   2.273   7.247
 7496SOL     OW27334   3.022   2.069   7.063
 7496SOL    HW127335   3.022   2.133   7.140
 7496SOL    HW227336   3.050   2.117   6.980
 7497SOL     OW27337   1.870   3.188   5.786
 7497SOL    HW127338   1.777   3.209   5.755
 7497SOL    HW227339   1.880   3.089   5.799
 7498SOL     OW27340   1.950   3.663   6.513
 7498SOL    HW127341   1.908   3.577   6.486
 7498SOL    HW227342   2.044   3.666   6.479
 7499SOL     OW27343   2.366   3.430   6.496
 7499SOL    HW127344   2.432   3.504   6.505
 7499SOL    HW227345   2.410   3.351   6.454
 7500SOL     OW27346   2.864   2.658   6.824
 7500SOL    HW127347   2.905   2.626   6.910
 7500SOL    HW227348   2.768   2.631   6.821
 7501SOL     OW27349   2.051   2.382   7.308
 7501SOL    HW127350   2.110   2.342   7.238
 7501SOL    HW227351   1.993   2.453   7.267
 7502SOL     OW27352   3.231   2.812   7.246
 7502SOL    HW127353   3.270   2.901   7.266
 7502SOL    HW227354   3.241   2.792   7.149
 7503SOL     OW27355   2.677   2.434   5.911
 7503SOL    HW127356   2.684   2.345   5.865
 7503SOL    HW227357   2.583   2.468   5.903
 7504SOL     OW27358   3.519   2.466   6.792
 7504SOL    HW127359   3.481   2.397   6.854
 7504SOL    HW227360   3.601   2.430   6.748
 7505SOL     OW27361   2.114   3.426   7.330
 7505SOL    HW127362   2.084   3.483   7.406
 7505SOL    HW227363   2.107   3.329   7.356
 7506SOL     OW27364   2.533   2.326   6.855
 7506SOL    HW127365   2.499   2.237   6.825
 7506SOL    HW227366   2.559   2.380   6.775
 7507SOL     OW27367   2.792   3.540   7.051
 7507SOL    HW127368   2.768   3.522   6.956
 7507SOL    HW227369   2.822   3.634   7.061
 7508SOL     OW27370   2.335   2.362   5.777
 7508SOL    HW127371   2.396   2.442   5.781
 7508SOL    HW227372   2.240   2.393   5.784
 7509SOL     OW27373   2.021   2.999   7.052
 7509SOL    HW127374   2.043   2.938   7.128
 7509SOL    HW227375   2.031   2.950   6.966
 7510SOL     OW27376   3.209   2.921   6.820
 7510SOL    HW127377   3.233   2.858   6.746
 7510SOL    HW227378   3.119   2.961   6.802
 7511SOL     OW27379   3.164   2.717   5.895
 7511SOL    HW127380   3.078   2.686   5.937
 7511SOL    HW227381   3.160   2.703   5.796
 7512SOL     OW27382   3.621   3.609   6.740
 7512SOL    HW127383   3.682   3.639   6.667
 7512SOL    HW227384   3.583   3.520   6.718
 7513SOL     OW27385   3.114   3.593   6.714
 7513SOL    HW127386   3.198   3.598   6.660
 7513SOL    HW227387   3.091   3.497   6.732
 7514SOL     OW27388   1.945   3.120   6.608
 7514SOL    HW127389   1.940   3.119   6.708
 7514SOL    HW227390   1.862   3.079   6.570
 7515SOL     OW27391   2.550   3.524   7.302
 7515SOL    HW127392   2.494   3.605   7.311
 7515SOL    HW227393   2.602   3.528   7.216
 7516SOL     OW27394   3.250   3.435   6.063
 7516SOL    HW127395   3.317   3.447   5.989
 7516SOL    HW227396   3.210   3.524   6.086
 7517SOL     OW27397   1.992   3.656   7.437
 7517SOL    HW127398   1.951   3.582   7.490
 7517SOL    HW227399   2.056   3.707   7.495
 7518SOL     OW27400   3.142   2.789   6.258
 7518SOL    HW127401   3.202   2.708   6.260
 7518SOL    HW227402   3.182   2.858   6.198
 7519SOL     OW27403   2.692   3.135   7.008
 7519SOL    HW127404   2.687   3.168   7.103
 7519SOL    HW227405   2.606   3.154   6.962
 7520SOL     OW27406   2.534   3.478   5.740
 7520SOL    HW127407   2.543   3.488   5.641
 7520SOL    HW227408   2.494   3.389   5.761
 7521SOL     OW27409   3.703   2.037   6.549
 7521SOL    HW127410   3.742   1.952   6.513
 7521SOL    HW227411   3.605   2.039   6.530
 7522SOL     OW27412   3.056   3.474   5.617
 7522SOL    HW127413   3.062   3.381   5.654
 7522SOL    HW227414   2.997   3.474   5.537
 7523SOL     OW27415   2.684   2.864   6.958
 7523SOL    HW127416   2.724   2.863   6.866
 7523SOL    HW227417   2.694   2.956   6.998
 7524SOL     OW27418   2.778   2.772   5.877
 7524SOL    HW127419   2.841   2.810   5.809
 7524SOL    HW227420   2.818   2.689   5.916
 7525SOL     OW27421   3.366   3.469   5.630
 7525SOL    HW127422   3.274   3.506   5.637
 7525SOL    HW227423   3.404   3.489   5.540
 7526SOL     OW27424   2.234   3.150   7.076
 7526SOL    HW127425   2.221   3.243   7.042
 7526SOL    HW227426   2.150   3.098   7.063
 7527SOL     OW27427   3.476   3.154   6.875
 7527SOL    HW127428   3.536   3.157   6.955
 7527SOL    HW227429   3.401   3.218   6.888
 7528SOL     OW27430   2.901   2.960   6.282
 7528SOL    HW127431   2.831   2.913   6.336
 7528SOL    HW227432   2.960   2.892   6.239
 7529SOL     OW27433   2.876   2.098   6.557
 7529SOL    HW127434   2.868   2.062   6.464
 7529SOL    HW227435   2.874   2.022   6.622
 7530SOL     OW27436   2.452   3.349   6.077
 7530SOL    HW127437   2.494   3.291   6.007
 7530SOL    HW227438   2.408   3.428   6.033
 7531SOL     OW27439   3.571   2.247   6.967
 7531SOL    HW127440   3.644   2.316   6.971
 7531SOL    HW227441   3.599   2.172   6.908
 7532SOL     OW27442   2.117   3.210   5.876
 7532SOL    HW127443   2.021   3.211   5.849
 7532SOL    HW227444   2.129   3.263   5.960
 7533SOL     OW27445   1.967   2.875   7.312
 7533SOL    HW127446   1.890   2.842   7.366
 7533SOL    HW227447   2.052   2.845   7.354
 7534SOL     OW27448   2.534   2.065   7.075
 7534SOL    HW127449   2.624   2.049   7.035
 7534SOL    HW227450   2.542   2.070   7.174
 7535SOL     OW27451   1.937   2.207   5.619
 7535SOL    HW127452   1.845   2.179   5.590
 7535SOL    HW227453   1.968   2.284   5.563
 7536SOL     OW27454   3.302   2.718   6.984
 7536SOL    HW127455   3.245   2.770   6.921
 7536SOL    HW227456   3.398   2.730   6.960
 7537SOL     OW27457   1.934   2.028   5.904
 7537SOL    HW127458   1.917   2.111   5.850
 7537SOL    HW227459   2.024   1.991   5.882
 7538SOL     OW27460   3.045   3.197   5.705
 7538SOL    HW127461   2.946   3.186   5.707
 7538SOL    HW227462   3.079   3.212   5.798
 7539SOL     OW27463   2.475   2.704   7.017
 7539SOL    HW127464   2.531   2.785   7.000
 7539SOL    HW227465   2.534   2.624   7.020
 7540SOL     OW27466   3.355   3.629   6.545
 7540SOL    HW127467   3.388   3.693   6.476
 7540SOL    HW227468   3.421   3.623   6.620
 7541SOL     OW27469   2.578   2.427   7.294
 7541SOL    HW127470   2.597   2.492   7.368
 7541SOL    HW227471   2.638   2.347   7.303
 7542SOL     OW27472   3.312   3.082   7.219
 7542SOL    HW127473   3.303   3.072   7.318
 7542SOL    HW227474   3.408   3.075   7.193
 7543SOL     OW27475   3.536   2.745   6.840
 7543SOL    HW127476   3.509   2.656   6.803
 7543SOL    HW227477   3.537   2.813   6.767
 7544SOL     OW27478   2.456   2.607   6.238
 7544SOL    HW127479   2.506   2.692   6.219
 7544SOL    HW227480   2.368   2.609   6.190
 7545SOL     OW27481   3.639   2.204   7.228
 7545SOL    HW127482   3.622   2.235   7.134
 7545SOL    HW227483   3.555   2.167   7.266
 7546SOL     OW27484   3.592   2.796   7.103
 7546SOL    HW127485   3.630   2.887   7.118
 7546SOL    HW227486   3.584   2.779   7.004
 7547SOL     OW27487   2.721   3.236   5.602
 7547SOL    HW127488   2.675   3.251   5.690
 7547SOL    HW227489   2.765   3.321   5.572
 7548SOL     OW27490   2.523   3.652   6.539
 7548SOL    HW127491   2.477   3.740   6.526
 7548SOL    HW227492   2.622   3.664   6.532
 7549SOL     OW27493   2.721   2.818   6.447
 7549SOL    HW127494   2.775   2.749   6.495
 7549SOL    HW227495   2.689   2.887   6.513
 7550SOL     OW27496   2.945   2.846   5.673
 7550SOL    HW127497   2.922   2.899   5.591
 7550SOL    HW227498   3.026   2.790   5.654
 7551SOL     OW27499   3.723   3.431   6.437
 7551SOL    HW127500   3.652   3.419   6.367
 7551SOL    HW227501   3.724   3.352   6.497
 7552SOL     OW27502   2.083   3.176   7.430
 7552SOL    HW127503   2.018   3.103   7.409
 7552SOL    HW227504   2.087   3.190   7.528
 7553SOL     OW27505   1.941   3.102   6.239
 7553SOL    HW127506   1.940   3.055   6.327
 7553SOL    HW227507   2.023   3.074   6.188
 7554SOL     OW27508   2.534   3.253   7.210
 7554SOL    HW127509   2.456   3.203   7.248
 7554SOL    HW227510   2.531   3.348   7.241
 7555SOL     OW27511   3.686   2.054   6.813
 7555SOL    HW127512   3.682   1.964   6.857
 7555SOL    HW227513   3.689   2.043   6.714
 7556SOL     OW27514   2.290   2.286   6.106
 7556SOL    HW127515   2.320   2.214   6.044
 7556SOL    HW227516   2.251   2.246   6.189
 7557SOL     OW27517   3.567   3.349   6.690
 7557SOL    HW127518   3.474   3.324   6.663
 7557SOL    HW227519   3.593   3.299   6.772
 7558SOL     OW27520   2.179   2.409   6.866
 7558SOL    HW127521   2.217   2.350   6.938
 7558SOL    HW227522   2.219   2.383   6.778
 7559SOL     OW27523   2.674   3.448   6.273
 7559SOL    HW127524   2.706   3.458   6.179
 7559SOL    HW227525   2.595   3.386   6.275
 7560SOL     OW27526   2.863   1.896   6.740
 7560SOL    HW127527   2.800   1.824   6.709
 7560SOL    HW227528   2.956   1.860   6.740
 7561SOL     OW27529   2.632   3.192   5.887
 7561SOL    HW127530   2.586   3.105   5.904
 7561SOL    HW227531   2.723   3.189   5.928
 7562SOL     OW27532   2.480   3.429   6.870
 7562SOL    HW127533   2.475   3.511   6.927
 7562SOL    HW227534   2.569   3.426   6.825
 7563SOL     OW27535   3.214   1.914   5.754
 7563SOL    HW127536   3.249   1.873   5.670
 7563SOL    HW227537   3.124   1.876   5.774
 7564SOL     OW27538   3.162   2.315   6.277
 7564SOL    HW127539   3.103   2.395   6.281
 7564SOL    HW227540   3.177   2.280   6.370
 7565SOL     OW27541   3.455   2.083   6.468
 7565SOL    HW127542   3.371   2.082   6.522
 7565SOL    HW227543   3.457   2.166   6.412
 7566SOL     OW27544   1.901   2.939   5.886
 7566SOL    HW127545   2.000   2.928   5.877
 7566SOL    HW227546   1.861   2.853   5.918
 7567SOL     OW27547   2.737   3.508   5.923
 7567SOL    HW127548   2.660   3.473   5.869
 7567SOL    HW227549   2.705   3.579   5.985
 7568SOL     OW27550   2.092   2.490   7.561
 7568SOL    HW127551   1.999   2.488   7.598
 7568SOL    HW227552   2.093   2.451   7.469
 7569SOL     OW27553   2.087   2.137   8.444
 7569SOL    HW127554   2.122   2.120   8.536
 7569SOL    HW227555   1.999   2.092   8.432
 7570SOL     OW27556   1.881   2.230   8.095
 7570SOL    HW127557   1.799   2.273   8.134
 7570SOL    HW227558   1.853   2.157   8.032
 7571SOL     OW27559   2.431   3.137   8.613
 7571SOL    HW127560   2.338   3.130   8.576
 7571SOL    HW227561   2.442   3.226   8.657
 7572SOL     OW27562   3.417   3.373   8.151
 7572SOL    HW127563   3.360   3.357   8.232
 7572SOL    HW227564   3.358   3.383   8.071
 7573SOL     OW27565   2.997   2.565   8.165
 7573SOL    HW127566   3.054   2.643   8.140
 7573SOL    HW227567   2.937   2.591   8.241
 7574SOL     OW27568   3.617   2.469   7.679
 7574SOL    HW127569   3.605   2.456   7.580
 7574SOL    HW227570   3.587   2.388   7.728
 7575SOL     OW27571   2.630   3.006   8.471
 7575SOL    HW127572   2.552   3.023   8.531
 7575SOL    HW227573   2.664   3.093   8.435
 7576SOL     OW27574   2.712   2.660   9.271
 7576SOL    HW127575   2.708   2.736   9.336
 7576SOL    HW227576   2.734   2.696   9.180
 7577SOL     OW27577   2.547   2.874   8.113
 7577SOL    HW127578   2.616   2.858   8.183
 7577SOL    HW227579   2.474   2.931   8.151
 7578SOL     OW27580   2.548   3.023   9.251
 7578SOL    HW127581   2.608   3.102   9.265
 7578SOL    HW227582   2.462   3.054   9.210
 7579SOL     OW27583   2.197   3.297   8.509
 7579SOL    HW127584   2.119   3.266   8.456
 7579SOL    HW227585   2.255   3.355   8.452
 7580SOL     OW27586   3.322   3.367   8.787
 7580SOL    HW127587   3.346   3.461   8.813
 7580SOL    HW227588   3.306   3.313   8.869
 7581SOL     OW27589   3.465   2.309   8.185
 7581SOL    HW127590   3.391   2.355   8.135
 7581SOL    HW227591   3.516   2.377   8.238
 7582SOL     OW27592   2.093   3.575   7.931
 7582SOL    HW127593   2.127   3.652   7.985
 7582SOL    HW227594   2.137   3.575   7.841
 7583SOL     OW27595   2.989   3.203   9.138
 7583SOL    HW127596   3.036   3.203   9.226
 7583SOL    HW227597   2.941   3.116   9.127
 7584SOL     OW27598   2.092   3.296   7.986
 7584SOL    HW127599   2.066   3.392   7.986
 7584SOL    HW227600   2.021   3.242   8.031
 7585SOL     OW27601   2.102   2.953   8.334
 7585SOL    HW127602   2.116   2.869   8.386
 7585SOL    HW227603   2.047   3.017   8.389
 7586SOL     OW27604   2.482   3.648   8.887
 7586SOL    HW127605   2.390   3.631   8.922
 7586SOL    HW227606   2.510   3.740   8.913
 7587SOL     OW27607   2.468   2.826   7.571
 7587SOL    HW127608   2.475   2.910   7.517
 7587SOL    HW227609   2.514   2.839   7.659
 7588SOL     OW27610   3.456   1.976   8.928
 7588SOL    HW127611   3.438   2.043   8.856
 7588SOL    HW227612   3.453   2.022   9.017
 7589SOL     OW27613   1.984   2.505   8.011
 7589SOL    HW127614   1.939   2.417   8.028
 7589SOL    HW227615   1.983   2.559   8.095
 7590SOL     OW27616   3.704   3.629   7.807
 7590SOL    HW127617   3.758   3.600   7.887
 7590SOL    HW227618   3.734   3.719   7.778
 7591SOL     OW27619   1.889   3.458   7.565
 7591SOL    HW127620   1.870   3.362   7.586
 7591SOL    HW227621   1.856   3.516   7.640
 7592SOL     OW27622   3.551   2.784   8.060
 7592SOL    HW127623   3.646   2.755   8.068
 7592SOL    HW227624   3.543   2.849   7.985
 7593SOL     OW27625   3.503   2.970   7.880
 7593SOL    HW127626   3.589   2.972   7.828
 7593SOL    HW227627   3.517   3.017   7.968
 7594SOL     OW27628   2.475   3.227   8.174
 7594SOL    HW127629   2.426   3.140   8.183
 7594SOL    HW227630   2.452   3.270   8.087
 7595SOL     OW27631   3.155   3.090   8.871
 7595SOL    HW127632   3.192   3.017   8.813
 7595SOL    HW227633   3.207   3.095   8.956
 7596SOL     OW27634   2.671   1.866   7.950
 7596SOL    HW127635   2.711   1.957   7.941
 7596SOL    HW227636   2.571   1.874   7.956
 7597SOL     OW27637   2.059   2.838   8.712
 7597SOL    HW127638   2.148   2.793   8.698
 7597SOL    HW227639   1.986   2.773   8.693
 7598SOL     OW27640   3.387   2.861   7.638
 7598SOL    HW127641   3.324   2.785   7.651
 7598SOL    HW227642   3.435   2.879   7.724
 7599SOL     OW27643   3.049   3.654   9.064
 7599SOL    HW127644   3.073   3.714   8.988
 7599SOL    HW227645   3.056   3.559   9.034
 7600SOL     OW27646   2.179   2.113   9.249
 7600SOL    HW127647   2.250   2.184   9.255
 7600SOL    HW227648   2.091   2.152   9.277
 7601SOL     OW27649   3.328   3.279   8.401
 7601SOL    HW127650   3.269   3.285   8.481
 7601SOL    HW227651   3.313   3.191   8.355
 7602SOL     OW27652   3.529   3.576   8.020
 7602SOL    HW127653   3.488   3.553   7.932
 7602SOL    HW227654   3.511   3.502   8.085
 7603SOL     OW27655   2.460   2.591   7.718
 7603SOL    HW127656   2.484   2.660   7.650
 7603SOL    HW227657   2.382   2.624   7.772
 7604SOL     OW27658   3.143   2.207   8.392
 7604SOL    HW127659   3.057   2.157   8.379
 7604SOL    HW227660   3.205   2.153   8.448
 7605SOL     OW27661   3.438   3.524   7.755
 7605SOL    HW127662   3.527   3.570   7.758
 7605SOL    HW227663   3.417   3.500   7.660
 7606SOL     OW27664   2.669   2.467   8.913
 7606SOL    HW127665   2.622   2.464   9.002
 7606SOL    HW227666   2.618   2.412   8.847
 7607SOL     OW27667   3.256   2.331   9.122
 7607SOL    HW127668   3.236   2.374   9.210
 7607SOL    HW227669   3.334   2.269   9.131
 7608SOL     OW27670   2.835   2.752   9.020
 7608SOL    HW127671   2.881   2.668   8.991
 7608SOL    HW227672   2.779   2.786   8.945
 7609SOL     OW27673   2.853   2.272   8.690
 7609SOL    HW127674   2.776   2.306   8.744
 7609SOL    HW227675   2.819   2.221   8.611
 7610SOL     OW27676   2.903   2.563   7.877
 7610SOL    HW127677   2.929   2.559   7.973
 7610SOL    HW227678   2.818   2.512   7.863
 7611SOL     OW27679   1.938   2.673   8.237
 7611SOL    HW127680   2.037   2.661   8.246
 7611SOL    HW227681   1.914   2.768   8.258
 7612SOL     OW27682   1.992   3.683   9.019
 7612SOL    HW127683   1.982   3.668   9.118
 7612SOL    HW227684   1.906   3.719   8.983
 7613SOL     OW27685   2.727   2.210   7.643
 7613SOL    HW127686   2.786   2.273   7.594
 7613SOL    HW227687   2.746   2.116   7.614
 7614SOL     OW27688   3.581   2.447   9.279
 7614SOL    HW127689   3.555   2.536   9.243
 7614SOL    HW227690   3.579   2.379   9.206
 7615SOL     OW27691   3.224   3.006   7.993
 7615SOL    HW127692   3.307   2.977   7.945
 7615SOL    HW227693   3.175   3.073   7.937
 7616SOL     OW27694   2.412   2.058   8.333
 7616SOL    HW127695   2.407   2.053   8.433
 7616SOL    HW227696   2.414   2.154   8.304
 7617SOL     OW27697   2.870   3.318   7.925
 7617SOL    HW127698   2.824   3.390   7.873
 7617SOL    HW227699   2.866   3.338   8.023
 7618SOL     OW27700   2.213   3.663   8.301
 7618SOL    HW127701   2.263   3.577   8.307
 7618SOL    HW227702   2.278   3.740   8.298
 7619SOL     OW27703   3.657   2.928   8.321
 7619SOL    HW127704   3.595   2.913   8.245
 7619SOL    HW227705   3.605   2.939   8.406
 7620SOL     OW27706   3.089   3.412   8.954
 7620SOL    HW127707   3.095   3.335   9.018
 7620SOL    HW227708   3.037   3.386   8.874
 7621SOL     OW27709   2.183   2.805   7.690
 7621SOL    HW127710   2.265   2.844   7.648
 7621SOL    HW227711   2.156   2.723   7.641
 7622SOL     OW27712   3.320   2.597   8.176
 7622SOL    HW127713   3.315   2.532   8.251
 7622SOL    HW227714   3.400   2.656   8.189
 7623SOL     OW27715   2.323   3.128   9.175
 7623SOL    HW127716   2.273   3.129   9.089
 7623SOL    HW227717   2.260   3.110   9.251
 7624SOL     OW27718   2.973   3.638   7.685
 7624SOL    HW127719   2.913   3.576   7.735
 7624SOL    HW227720   3.004   3.594   7.600
 7625SOL     OW27721   3.494   3.239   7.529
 7625SOL    HW127722   3.462   3.333   7.519
 7625SOL    HW227723   3.418   3.176   7.517
 7626SOL     OW27724   2.326   3.605   7.771
 7626SOL    HW127725   2.359   3.644   7.857
 7626SOL    HW227726   2.402   3.598   7.706
 7627SOL     OW27727   3.262   1.969   7.874
 7627SOL    HW127728   3.238   1.932   7.784
 7627SOL    HW227729   3.361   1.985   7.878
 7628SOL     OW27730   2.111   3.647   8.689
 7628SOL    HW127731   2.168   3.582   8.739
 7628SOL    HW227732   2.095   3.614   8.596
 7629SOL     OW27733   2.802   3.560   8.352
 7629SOL    HW127734   2.882   3.503   8.373
 7629SOL    HW227735   2.753   3.520   8.275
 7630SOL     OW27736   2.244   2.562   7.928
 7630SOL    HW127737   2.289   2.472   7.925
 7630SOL    HW227738   2.150   2.551   7.961
 7631SOL     OW27739   3.409   2.084   9.177
 7631SOL    HW127740   3.404   2.121   9.269
 7631SOL    HW227741   3.337   2.015   9.165
 7632SOL     OW27742   2.476   1.984   7.565
 7632SOL    HW127743   2.574   1.962   7.572
 7632SOL    HW227744   2.445   1.967   7.472
 7633SOL     OW27745   2.643   2.126   9.197
 7633SOL    HW127746   2.710   2.065   9.240
 7633SOL    HW227747   2.570   2.145   9.262
 7634SOL     OW27748   2.750   3.376   8.643
 7634SOL    HW127749   2.727   3.351   8.549
 7634SOL    HW227750   2.811   3.307   8.682
 7635SOL     OW27751   3.213   2.452   8.881
 7635SOL    HW127752   3.241   2.409   8.966
 7635SOL    HW227753   3.238   2.548   8.882
 7636SOL     OW27754   2.665   3.264   8.372
 7636SOL    HW127755   2.755   3.278   8.330
 7636SOL    HW227756   2.594   3.266   8.301
 7637SOL     OW27757   2.784   2.365   8.347
 7637SOL    HW127758   2.759   2.356   8.251
 7637SOL    HW227759   2.832   2.283   8.378
 7638SOL     OW27760   2.401   1.926   7.960
 7638SOL    HW127761   2.320   1.927   8.018
 7638SOL    HW227762   2.404   2.009   7.905
 7639SOL     OW27763   3.296   3.050   7.489
 7639SOL    HW127764   3.328   2.974   7.546
 7639SOL    HW227765   3.204   3.077   7.519
 7640SOL     OW27766   2.159   1.897   7.619
 7640SOL    HW127767   2.208   1.981   7.598
 7640SOL    HW227768   2.221   1.832   7.664
 7641SOL     OW27769   2.797   2.098   7.928
 7641SOL    HW127770   2.749   2.139   7.850
 7641SOL    HW227771   2.896   2.096   7.909
 7642SOL     OW27772   2.938   2.545   8.912
 7642SOL    HW127773   2.858   2.484   8.915
 7642SOL    HW227774   3.019   2.492   8.888
 7643SOL     OW27775   3.089   3.432   8.241
 7643SOL    HW127776   3.110   3.506   8.176
 7643SOL    HW227777   3.157   3.432   8.314
 7644SOL     OW27778   2.321   3.014   8.189
 7644SOL    HW127779   2.250   2.987   8.254
 7644SOL    HW227780   2.295   2.986   8.096
 7645SOL     OW27781   3.133   3.659   8.039
 7645SOL    HW127782   3.177   3.723   7.975
 7645SOL    HW227783   3.083   3.711   8.109
 7646SOL     OW27784   2.894   2.411   7.464
 7646SOL    HW127785   2.853   2.493   7.425
 7646SOL    HW227786   2.958   2.437   7.537
 7647SOL     OW27787   1.940   2.418   8.834
 7647SOL    HW127788   2.032   2.417   8.793
 7647SOL    HW227789   1.934   2.492   8.901
 7648SOL     OW27790   2.728   2.316   8.090
 7648SOL    HW127791   2.696   2.388   8.028
 7648SOL    HW227792   2.752   2.235   8.037
 7649SOL     OW27793   3.328   2.452   8.440
 7649SOL    HW127794   3.298   2.357   8.447
 7649SOL    HW227795   3.401   2.468   8.506
 7650SOL     OW27796   3.719   2.695   7.825
 7650SOL    HW127797   3.761   2.631   7.889
 7650SOL    HW227798   3.681   2.644   7.747
 7651SOL     OW27799   2.350   3.247   7.622
 7651SOL    HW127800   2.263   3.232   7.669
 7651SOL    HW227801   2.333   3.273   7.527
 7652SOL     OW27802   3.526   3.142   8.105
 7652SOL    HW127803   3.625   3.150   8.119
 7652SOL    HW227804   3.481   3.226   8.136
 7653SOL     OW27805   3.252   2.437   7.526
 7653SOL    HW127806   3.198   2.416   7.607
 7653SOL    HW227807   3.343   2.396   7.535
 7654SOL     OW27808   2.389   2.118   7.776
 7654SOL    HW127809   2.416   2.059   7.701
 7654SOL    HW227810   2.389   2.213   7.745
 7655SOL     OW27811   3.616   3.085   9.036
 7655SOL    HW127812   3.707   3.046   9.023
 7655SOL    HW227813   3.624   3.181   9.060
 7656SOL     OW27814   2.926   3.209   8.788
 7656SOL    HW127815   2.846   3.186   8.843
 7656SOL    HW227816   3.009   3.183   8.837
 7657SOL     OW27817   3.454   3.491   9.073
 7657SOL    HW127818   3.481   3.525   8.983
 7657SOL    HW227819   3.533   3.453   9.119
 7658SOL     OW27820   2.973   3.057   8.548
 7658SOL    HW127821   2.933   3.101   8.629
 7658SOL    HW227822   2.932   3.094   8.465
 7659SOL     OW27823   3.500   2.961   8.527
 7659SOL    HW127824   3.505   3.042   8.586
 7659SOL    HW227825   3.414   2.963   8.476
 7660SOL     OW27826   2.777   1.951   8.850
 7660SOL    HW127827   2.802   1.931   8.755
 7660SOL    HW227828   2.849   2.007   8.892
 7661SOL     OW27829   2.842   2.978   9.167
 7661SOL    HW127830   2.743   2.984   9.177
 7661SOL    HW227831   2.865   2.898   9.111
 7662SOL     OW27832   2.567   2.912   7.816
 7662SOL    HW127833   2.553   2.919   7.915
 7662SOL    HW227834   2.651   2.861   7.798
 7663SOL     OW27835   2.272   2.675   8.699
 7663SOL    HW127836   2.358   2.687   8.749
 7663SOL    HW227837   2.230   2.588   8.726
 7664SOL     OW27838   3.136   2.248   8.710
 7664SOL    HW127839   3.157   2.322   8.774
 7664SOL    HW227840   3.047   2.265   8.667
 7665SOL     OW27841   1.926   3.426   8.779
 7665SOL    HW127842   1.880   3.508   8.745
 7665SOL    HW227843   2.024   3.445   8.788
 7666SOL     OW27844   2.229   2.962   7.949
 7666SOL    HW127845   2.222   3.045   7.893
 7666SOL    HW227846   2.233   2.882   7.889
 7667SOL     OW27847   2.428   2.399   8.313
 7667SOL    HW127848   2.440   2.465   8.239
 7667SOL    HW227849   2.474   2.433   8.396
 7668SOL     OW27850   3.114   3.210   7.836
 7668SOL    HW127851   3.164   3.287   7.876
 7668SOL    HW227852   3.019   3.212   7.868
 7669SOL     OW27853   3.134   3.307   8.590
 7669SOL    HW127854   3.181   3.320   8.677
 7669SOL    HW227855   3.068   3.233   8.599
 7670SOL     OW27856   3.444   2.501   7.920
 7670SOL    HW127857   3.413   2.562   7.993
 7670SOL    HW227858   3.494   2.553   7.851
 7671SOL     OW27859   2.216   3.372   8.777
 7671SOL    HW127860   2.195   3.328   8.690
 7671SOL    HW227861   2.313   3.398   8.780
 7672SOL     OW27862   3.449   2.641   9.118
 7672SOL    HW127863   3.357   2.679   9.113
 7672SOL    HW227864   3.509   2.688   9.053
 7673SOL     OW27865   2.875   1.967   9.218
 7673SOL    HW127866   2.881   2.052   9.166
 7673SOL    HW227867   2.907   1.891   9.161
 7674SOL     OW27868   2.366   1.912   9.188
 7674SOL    HW127869   2.324   1.855   9.118
 7674SOL    HW227870   2.300   1.981   9.220
 7675SOL     OW27871   2.435   2.732   8.477
 7675SOL    HW127872   2.479   2.821   8.468
 7675SOL    HW227873   2.372   2.732   8.554
 7676SOL     OW27874   3.222   2.724   8.493
 7676SOL    HW127875   3.147   2.724   8.427
 7676SOL    HW227876   3.259   2.632   8.502
 7677SOL     OW27877   3.071   2.387   7.723
 7677SOL    HW127878   3.084   2.303   7.777
 7677SOL    HW227879   3.042   2.461   7.783
 7678SOL     OW27880   1.899   3.172   8.730
 7678SOL    HW127881   1.952   3.123   8.798
 7678SOL    HW227882   1.921   3.270   8.735
 7679SOL     OW27883   2.594   2.496   8.512
 7679SOL    HW127884   2.653   2.470   8.436
 7679SOL    HW227885   2.566   2.592   8.501
 7680SOL     OW27886   3.590   2.797   9.302
 7680SOL    HW127887   3.544   2.790   9.213
 7680SOL    HW227888   3.528   2.841   9.368
 7681SOL     OW27889   2.169   1.925   8.066
 7681SOL    HW127890   2.158   2.019   8.099
 7681SOL    HW227891   2.164   1.862   8.143
 7682SOL     OW27892   3.484   2.229   7.822
 7682SOL    HW127893   3.486   2.153   7.886
 7682SOL    HW227894   3.436   2.306   7.862
 7683SOL     OW27895   2.885   2.628   8.414
 7683SOL    HW127896   2.900   2.649   8.510
 7683SOL    HW227897   2.855   2.533   8.405
 7684SOL     OW27898   2.842   3.435   9.148
 7684SOL    HW127899   2.822   3.479   9.060
 7684SOL    HW227900   2.881   3.344   9.132
 7685SOL     OW27901   3.721   3.380   9.053
 7685SOL    HW127902   3.735   3.407   8.958
 7685SOL    HW227903   3.804   3.402   9.106
 7686SOL     OW27904   3.402   2.136   7.573
 7686SOL    HW127905   3.341   2.061   7.596
 7686SOL    HW227906   3.424   2.188   7.656
 7687SOL     OW27907   3.165   2.700   7.490
 7687SOL    HW127908   3.199   2.607   7.505
 7687SOL    HW227909   3.183   2.727   7.395
 7688SOL     OW27910   2.930   3.195   8.297
 7688SOL    HW127911   2.937   3.111   8.242
 7688SOL    HW227912   2.992   3.264   8.261
 7689SOL     OW27913   2.181   2.672   8.397
 7689SOL    HW127914   2.274   2.708   8.402
 7689SOL    HW227915   2.175   2.587   8.449
 7690SOL     OW27916   2.201   2.371   8.454
 7690SOL    HW127917   2.149   2.288   8.437
 7690SOL    HW227918   2.278   2.376   8.390
 7691SOL     OW27919   3.000   2.242   9.126
 7691SOL    HW127920   2.955   2.305   9.190
 7691SOL    HW227921   3.093   2.273   9.109
 7692SOL     OW27922   3.022   2.069   8.925
 7692SOL    HW127923   3.022   2.133   9.002
 7692SOL    HW227924   3.050   2.117   8.842
 7693SOL     OW27925   1.870   3.188   7.648
 7693SOL    HW127926   1.777   3.209   7.617
 7693SOL    HW227927   1.880   3.089   7.661
 7694SOL     OW27928   1.950   3.663   8.375
 7694SOL    HW127929   1.908   3.577   8.348
 7694SOL    HW227930   2.044   3.666   8.341
 7695SOL     OW27931   2.366   3.430   8.358
 7695SOL    HW127932   2.432   3.504   8.367
 7695SOL    HW227933   2.410   3.351   8.316
 7696SOL     OW27934   2.864   2.658   8.686
 7696SOL    HW127935   2.905   2.626   8.772
 7696SOL    HW227936   2.768   2.631   8.683
 7697SOL     OW27937   1.902   2.406   8.562
 7697SOL    HW127938   1.987   2.373   8.521
 7697SOL    HW227939   1.915   2.421   8.660
 7698SOL     OW27940   3.231   2.812   9.108
 7698SOL    HW127941   3.270   2.901   9.128
 7698SOL    HW227942   3.241   2.792   9.011
 7699SOL     OW27943   2.677   2.434   7.773
 7699SOL    HW127944   2.684   2.345   7.727
 7699SOL    HW227945   2.583   2.468   7.765
 7700SOL     OW27946   3.519   2.466   8.654
 7700SOL    HW127947   3.481   2.397   8.716
 7700SOL    HW227948   3.601   2.430   8.610
 7701SOL     OW27949   2.114   3.426   9.192
 7701SOL    HW127950   2.084   3.483   9.268
 7701SOL    HW227951   2.107   3.329   9.218
 7702SOL     OW27952   2.533   2.326   8.717
 7702SOL    HW127953   2.499   2.237   8.687
 7702SOL    HW227954   2.559   2.380   8.637
 7703SOL     OW27955   2.792   3.540   8.913
 7703SOL    HW127956   2.768   3.522   8.818
 7703SOL    HW227957   2.822   3.634   8.923
 7704SOL     OW27958   2.335   2.362   7.639
 7704SOL    HW127959   2.396   2.442   7.643
 7704SOL    HW227960   2.240   2.393   7.646
 7705SOL     OW27961   2.021   2.999   8.914
 7705SOL    HW127962   2.043   2.938   8.990
 7705SOL    HW227963   2.031   2.950   8.828
 7706SOL     OW27964   3.209   2.921   8.682
 7706SOL    HW127965   3.233   2.858   8.608
 7706SOL    HW227966   3.119   2.961   8.664
 7707SOL     OW27967   3.164   2.717   7.757
 7707SOL    HW127968   3.078   2.686   7.799
 7707SOL    HW227969   3.160   2.703   7.658
 7708SOL     OW27970   3.621   3.609   8.602
 7708SOL    HW127971   3.682   3.639   8.529
 7708SOL    HW227972   3.583   3.520   8.580
 7709SOL     OW27973   3.114   3.593   8.576
 7709SOL    HW127974   3.198   3.598   8.522
 7709SOL    HW227975   3.091   3.497   8.594
 7710SOL     OW27976   1.945   3.120   8.470
 7710SOL    HW127977   1.940   3.119   8.570
 7710SOL    HW227978   1.862   3.079   8.432
 7711SOL     OW27979   2.550   3.524   9.164
 7711SOL    HW127980   2.494   3.605   9.173
 7711SOL    HW227981   2.602   3.528   9.078
 7712SOL     OW27982   3.588   1.997   7.971
 7712SOL    HW127983   3.661   1.980   7.904
 7712SOL    HW227984   3.557   1.910   8.009
 7713SOL     OW27985   3.250   3.435   7.925
 7713SOL    HW127986   3.317   3.447   7.851
 7713SOL    HW227987   3.210   3.524   7.948
 7714SOL     OW27988   1.992   3.656   9.299
 7714SOL    HW127989   1.951   3.582   9.352
 7714SOL    HW227990   2.056   3.707   9.357
 7715SOL     OW27991   3.142   2.789   8.120
 7715SOL    HW127992   3.202   2.708   8.122
 7715SOL    HW227993   3.182   2.858   8.060
 7716SOL     OW27994   2.692   3.135   8.870
 7716SOL    HW127995   2.687   3.168   8.965
 7716SOL    HW227996   2.606   3.154   8.824
 7717SOL     OW27997   2.534   3.478   7.602
 7717SOL    HW127998   2.543   3.488   7.503
 7717SOL    HW227999   2.494   3.389   7.623
 7718SOL     OW28000   3.512   3.582   8.842
 7718SOL    HW128001   3.565   3.592   8.758
 7718SOL    HW228002   3.485   3.672   8.876
 7719SOL     OW28003   3.703   2.037   8.411
 7719SOL    HW128004   3.742   1.952   8.375
 7719SOL    HW228005   3.605   2.039   8.392
 7720SOL     OW28006   2.125   2.188   8.168
 7720SOL    HW128007   2.046   2.239   8.134
 7720SOL    HW228008   2.116   2.173   8.266
 7721SOL     OW28009   2.684   2.864   8.820
 7721SOL    HW128010   2.724   2.863   8.728
 7721SOL    HW228011   2.694   2.956   8.860
 7722SOL     OW28012   3.366   3.469   7.492
 7722SOL    HW128013   3.274   3.506   7.499
 7722SOL    HW228014   3.404   3.489   7.402
 7723SOL     OW28015   2.234   3.150   8.938
 7723SOL    HW128016   2.221   3.243   8.904
 7723SOL    HW228017   2.150   3.098   8.925
 7724SOL     OW28018   3.476   3.154   8.737
 7724SOL    HW128019   3.536   3.157   8.817
 7724SOL    HW228020   3.401   3.218   8.750
 7725SOL     OW28021   2.901   2.960   8.144
 7725SOL    HW128022   2.831   2.913   8.198
 7725SOL    HW228023   2.960   2.892   8.101
 7726SOL     OW28024   3.571   2.247   8.829
 7726SOL    HW128025   3.644   2.316   8.833
 7726SOL    HW228026   3.599   2.172   8.770
 7727SOL     OW28027   2.117   3.210   7.738
 7727SOL    HW128028   2.021   3.211   7.711
 7727SOL    HW228029   2.129   3.263   7.822
 7728SOL     OW28030   1.967   2.875   9.174
 7728SOL    HW128031   1.890   2.842   9.228
 7728SOL    HW228032   2.052   2.845   9.216
 7729SOL     OW28033   2.534   2.065   8.937
 7729SOL    HW128034   2.624   2.049   8.897
 7729SOL    HW228035   2.542   2.070   9.036
 7730SOL     OW28036   1.937   2.207   7.481
 7730SOL    HW128037   1.845   2.179   7.452
 7730SOL    HW228038   1.968   2.284   7.425
 7731SOL     OW28039   3.302   2.718   8.846
 7731SOL    HW128040   3.245   2.770   8.783
 7731SOL    HW228041   3.398   2.730   8.822
 7732SOL     OW28042   1.934   2.028   7.766
 7732SOL    HW128043   1.917   2.111   7.712
 7732SOL    HW228044   2.024   1.991   7.744
 7733SOL     OW28045   3.045   3.197   7.567
 7733SOL    HW128046   2.946   3.186   7.569
 7733SOL    HW228047   3.079   3.212   7.660
 7734SOL     OW28048   2.475   2.704   8.879
 7734SOL    HW128049   2.531   2.785   8.862
 7734SOL    HW228050   2.534   2.624   8.882
 7735SOL     OW28051   3.355   3.629   8.407
 7735SOL    HW128052   3.388   3.693   8.338
 7735SOL    HW228053   3.421   3.623   8.482
 7736SOL     OW28054   2.578   2.427   9.156
 7736SOL    HW128055   2.597   2.492   9.230
 7736SOL    HW228056   2.638   2.347   9.165
 7737SOL     OW28057   3.312   3.082   9.081
 7737SOL    HW128058   3.303   3.072   9.180
 7737SOL    HW228059   3.408   3.075   9.055
 7738SOL     OW28060   2.252   3.603   9.008
 7738SOL    HW128061   2.161   3.644   9.006
 7738SOL    HW228062   2.245   3.509   9.040
 7739SOL     OW28063   3.536   2.745   8.702
 7739SOL    HW128064   3.509   2.656   8.665
 7739SOL    HW228065   3.537   2.813   8.629
 7740SOL     OW28066   3.087   2.187   7.897
 7740SOL    HW128067   3.152   2.113   7.886
 7740SOL    HW228068   3.107   2.237   7.981
 7741SOL     OW28069   2.456   2.607   8.100
 7741SOL    HW128070   2.506   2.692   8.081
 7741SOL    HW228071   2.368   2.609   8.052
 7742SOL     OW28072   3.639   2.204   9.090
 7742SOL    HW128073   3.622   2.235   8.996
 7742SOL    HW228074   3.555   2.167   9.128
 7743SOL     OW28075   3.592   2.796   8.965
 7743SOL    HW128076   3.630   2.887   8.980
 7743SOL    HW228077   3.584   2.779   8.866
 7744SOL     OW28078   2.721   3.236   7.464
 7744SOL    HW128079   2.675   3.251   7.552
 7744SOL    HW228080   2.765   3.321   7.434
 7745SOL     OW28081   2.523   3.652   8.401
 7745SOL    HW128082   2.477   3.740   8.388
 7745SOL    HW228083   2.622   3.664   8.394
 7746SOL     OW28084   2.721   2.818   8.309
 7746SOL    HW128085   2.775   2.749   8.357
 7746SOL    HW228086   2.689   2.887   8.375
 7747SOL     OW28087   2.945   2.846   7.535
 7747SOL    HW128088   2.922   2.899   7.453
 7747SOL    HW228089   3.026   2.790   7.516
 7748SOL     OW28090   3.723   3.431   8.299
 7748SOL    HW128091   3.652   3.419   8.229
 7748SOL    HW228092   3.724   3.352   8.359
 7749SOL     OW28093   2.083   3.176   9.292
 7749SOL    HW128094   2.018   3.103   9.271
 7749SOL    HW228095   2.087   3.190   9.390
 7750SOL     OW28096   1.941   3.102   8.101
 7750SOL    HW128097   1.940   3.055   8.189
 7750SOL    HW228098   2.023   3.074   8.050
 7751SOL     OW28099   2.534   3.253   9.072
 7751SOL    HW128100   2.456   3.203   9.110
 7751SOL    HW228101   2.531   3.348   9.103
 7752SOL     OW28102   3.686   2.054   8.675
 7752SOL    HW128103   3.682   1.964   8.719
 7752SOL    HW228104   3.689   2.043   8.576
 7753SOL     OW28105   2.290   2.286   7.968
 7753SOL    HW128106   2.320   2.214   7.906
 7753SOL    HW228107   2.251   2.246   8.051
 7754SOL     OW28108   3.567   3.349   8.552
 7754SOL    HW128109   3.474   3.324   8.525
 7754SOL    HW228110   3.593   3.299   8.634
 7755SOL     OW28111   2.674   3.448   8.135
 7755SOL    HW128112   2.706   3.458   8.041
 7755SOL    HW228113   2.595   3.386   8.137
 7756SOL     OW28114   3.286   2.076   8.560
 7756SOL    HW128115   3.338   2.011   8.615
 7756SOL    HW228116   3.237   2.139   8.621
 7757SOL     OW28117   2.632   3.192   7.749
 7757SOL    HW128118   2.586   3.105   7.766
 7757SOL    HW228119   2.723   3.189   7.790
 7758SOL     OW28120   2.480   3.429   8.732
 7758SOL    HW128121   2.475   3.511   8.789
 7758SOL    HW228122   2.569   3.426   8.687
 7759SOL     OW28123   3.214   1.914   7.616
 7759SOL    HW128124   3.249   1.873   7.532
 7759SOL    HW228125   3.124   1.876   7.636
 7760SOL     OW28126   3.162   2.315   8.139
 7760SOL    HW128127   3.103   2.395   8.143
 7760SOL    HW228128   3.177   2.280   8.232
 7761SOL     OW28129   3.455   2.083   8.330
 7761SOL    HW128130   3.371   2.082   8.384
 7761SOL    HW228131   3.457   2.166   8.274
 7762SOL     OW28132   1.901   2.939   7.748
 7762SOL    HW128133   2.000   2.928   7.739
 7762SOL    HW228134   1.861   2.853   7.780
 7763SOL     OW28135   2.737   3.508   7.785
 7763SOL    HW128136   2.660   3.473   7.731
 7763SOL    HW228137   2.705   3.579   7.847
 7764SOL     OW28138   3.617   2.469   9.541
 7764SOL    HW128139   3.605   2.456   9.442
 7764SOL    HW228140   3.587   2.388   9.590
 7765SOL     OW28141   2.093   3.575   9.793
 7765SOL    HW128142   2.127   3.652   9.847
 7765SOL    HW228143   2.137   3.575   9.703
 7766SOL     OW28144   2.092   3.296   9.848
 7766SOL    HW128145   2.066   3.392   9.848
 7766SOL    HW228146   2.021   3.242   9.893
 7767SOL     OW28147   2.468   2.826   9.433
 7767SOL    HW128148   2.475   2.910   9.379
 7767SOL    HW228149   2.514   2.839   9.521
 7768SOL     OW28150   1.984   2.505   9.873
 7768SOL    HW128151   1.939   2.417   9.890
 7768SOL    HW228152   1.983   2.559   9.957
 7769SOL     OW28153   3.704   3.629   9.669
 7769SOL    HW128154   3.758   3.600   9.749
 7769SOL    HW228155   3.734   3.719   9.640
 7770SOL     OW28156   1.889   3.458   9.427
 7770SOL    HW128157   1.870   3.362   9.448
 7770SOL    HW228158   1.856   3.516   9.502
 7771SOL     OW28159   3.551   2.784   9.922
 7771SOL    HW128160   3.646   2.755   9.930
 7771SOL    HW228161   3.543   2.849   9.847
 7772SOL     OW28162   3.503   2.970   9.742
 7772SOL    HW128163   3.589   2.972   9.690
 7772SOL    HW228164   3.517   3.017   9.830
 7773SOL     OW28165   2.475   3.227  10.036
 7773SOL    HW128166   2.426   3.140  10.045
 7773SOL    HW228167   2.452   3.270   9.949
 7774SOL     OW28168   2.671   1.866   9.812
 7774SOL    HW128169   2.711   1.957   9.803
 7774SOL    HW228170   2.571   1.874   9.818
 7775SOL     OW28171   3.387   2.861   9.500
 7775SOL    HW128172   3.324   2.785   9.513
 7775SOL    HW228173   3.435   2.879   9.586
 7776SOL     OW28174   2.460   2.591   9.580
 7776SOL    HW128175   2.484   2.660   9.512
 7776SOL    HW228176   2.382   2.624   9.634
 7777SOL     OW28177   3.438   3.524   9.617
 7777SOL    HW128178   3.527   3.570   9.620
 7777SOL    HW228179   3.417   3.500   9.522
 7778SOL     OW28180   2.903   2.563   9.739
 7778SOL    HW128181   2.929   2.559   9.835
 7778SOL    HW228182   2.818   2.512   9.725
 7779SOL     OW28183   1.938   2.673  10.099
 7779SOL    HW128184   2.037   2.661  10.108
 7779SOL    HW228185   1.914   2.768  10.120
 7780SOL     OW28186   2.727   2.210   9.505
 7780SOL    HW128187   2.786   2.273   9.456
 7780SOL    HW228188   2.746   2.116   9.476
 7781SOL     OW28189   3.224   3.006   9.855
 7781SOL    HW128190   3.307   2.977   9.807
 7781SOL    HW228191   3.175   3.073   9.799
 7782SOL     OW28192   2.870   3.318   9.787
 7782SOL    HW128193   2.824   3.390   9.735
 7782SOL    HW228194   2.866   3.338   9.885
 7783SOL     OW28195   2.213   3.663  10.163
 7783SOL    HW128196   2.263   3.577  10.169
 7783SOL    HW228197   2.278   3.740  10.160
 7784SOL     OW28198   2.183   2.805   9.552
 7784SOL    HW128199   2.265   2.844   9.510
 7784SOL    HW228200   2.156   2.723   9.503
 7785SOL     OW28201   2.973   3.638   9.547
 7785SOL    HW128202   2.913   3.576   9.597
 7785SOL    HW228203   3.004   3.594   9.462
 7786SOL     OW28204   3.494   3.239   9.391
 7786SOL    HW128205   3.462   3.333   9.381
 7786SOL    HW228206   3.418   3.176   9.379
 7787SOL     OW28207   2.326   3.605   9.633
 7787SOL    HW128208   2.359   3.644   9.719
 7787SOL    HW228209   2.402   3.598   9.568
 7788SOL     OW28210   3.262   1.969   9.736
 7788SOL    HW128211   3.238   1.932   9.646
 7788SOL    HW228212   3.361   1.985   9.740
 7789SOL     OW28213   2.244   2.562   9.790
 7789SOL    HW128214   2.289   2.472   9.787
 7789SOL    HW228215   2.150   2.551   9.823
 7790SOL     OW28216   2.476   1.984   9.427
 7790SOL    HW128217   2.574   1.962   9.434
 7790SOL    HW228218   2.445   1.967   9.334
 7791SOL     OW28219   2.401   1.926   9.822
 7791SOL    HW128220   2.320   1.927   9.880
 7791SOL    HW228221   2.404   2.009   9.767
 7792SOL     OW28222   3.296   3.050   9.351
 7792SOL    HW128223   3.328   2.974   9.408
 7792SOL    HW228224   3.204   3.077   9.381
 7793SOL     OW28225   2.159   1.897   9.481
 7793SOL    HW128226   2.208   1.981   9.460
 7793SOL    HW228227   2.221   1.832   9.526
 7794SOL     OW28228   2.321   3.014  10.051
 7794SOL    HW128229   2.250   2.987  10.116
 7794SOL    HW228230   2.295   2.986   9.958
 7795SOL     OW28231   3.133   3.659   9.901
 7795SOL    HW128232   3.177   3.723   9.837
 7795SOL    HW228233   3.083   3.711   9.971
 7796SOL     OW28234   2.894   2.411   9.326
 7796SOL    HW128235   2.853   2.493   9.287
 7796SOL    HW228236   2.958   2.437   9.399
 7797SOL     OW28237   2.728   2.316   9.952
 7797SOL    HW128238   2.696   2.388   9.890
 7797SOL    HW228239   2.752   2.235   9.899
 7798SOL     OW28240   3.719   2.695   9.687
 7798SOL    HW128241   3.761   2.631   9.751
 7798SOL    HW228242   3.681   2.644   9.609
 7799SOL     OW28243   2.350   3.247   9.484
 7799SOL    HW128244   2.263   3.232   9.531
 7799SOL    HW228245   2.333   3.273   9.389
 7800SOL     OW28246   3.252   2.437   9.388
 7800SOL    HW128247   3.198   2.416   9.469
 7800SOL    HW228248   3.343   2.396   9.397
 7801SOL     OW28249   2.389   2.118   9.638
 7801SOL    HW128250   2.416   2.059   9.563
 7801SOL    HW228251   2.389   2.213   9.607
 7802SOL     OW28252   2.567   2.912   9.678
 7802SOL    HW128253   2.553   2.919   9.777
 7802SOL    HW228254   2.651   2.861   9.660
 7803SOL     OW28255   2.229   2.962   9.811
 7803SOL    HW128256   2.222   3.045   9.755
 7803SOL    HW228257   2.233   2.882   9.751
 7804SOL     OW28258   3.114   3.210   9.698
 7804SOL    HW128259   3.164   3.287   9.738
 7804SOL    HW228260   3.019   3.212   9.730
 7805SOL     OW28261   3.444   2.501   9.782
 7805SOL    HW128262   3.413   2.562   9.855
 7805SOL    HW228263   3.494   2.553   9.713
 7806SOL     OW28264   3.071   2.387   9.585
 7806SOL    HW128265   3.084   2.303   9.639
 7806SOL    HW228266   3.042   2.461   9.645
 7807SOL     OW28267   2.169   1.925   9.928
 7807SOL    HW128268   2.158   2.019   9.961
 7807SOL    HW228269   2.164   1.862  10.005
 7808SOL     OW28270   3.484   2.229   9.684
 7808SOL    HW128271   3.486   2.153   9.748
 7808SOL    HW228272   3.436   2.306   9.724
 7809SOL     OW28273   3.402   2.136   9.435
 7809SOL    HW128274   3.341   2.061   9.458
 7809SOL    HW228275   3.424   2.188   9.518
 7810SOL     OW28276   3.165   2.700   9.352
 7810SOL    HW128277   3.199   2.607   9.367
 7810SOL    HW228278   3.183   2.727   9.257
 7811SOL     OW28279   1.870   3.188   9.510
 7811SOL    HW128280   1.777   3.209   9.479
 7811SOL    HW228281   1.880   3.089   9.523
 7812SOL     OW28282   2.677   2.434   9.635
 7812SOL    HW128283   2.684   2.345   9.589
 7812SOL    HW228284   2.583   2.468   9.627
 7813SOL     OW28285   2.335   2.362   9.501
 7813SOL    HW128286   2.396   2.442   9.505
 7813SOL    HW228287   2.240   2.393   9.508
 7814SOL     OW28288   3.164   2.717   9.619
 7814SOL    HW128289   3.078   2.686   9.661
 7814SOL    HW228290   3.160   2.703   9.520
 7815SOL     OW28291   3.588   1.997   9.833
 7815SOL    HW128292   3.661   1.980   9.766
 7815SOL    HW228293   3.557   1.910   9.871
 7816SOL     OW28294   3.250   3.435   9.787
 7816SOL    HW128295   3.317   3.447   9.713
 7816SOL    HW228296   3.210   3.524   9.810
 7817SOL     OW28297   2.534   3.478   9.464
 7817SOL    HW128298   2.543   3.488   9.365
 7817SOL    HW228299   2.494   3.389   9.485
 7818SOL     OW28300   3.056   3.474   9.341
 7818SOL    HW128301   3.062   3.381   9.378
 7818SOL    HW228302   2.997   3.474   9.261
 7819SOL     OW28303   2.778   2.772   9.601
 7819SOL    HW128304   2.841   2.810   9.533
 7819SOL    HW228305   2.818   2.689   9.640
 7820SOL     OW28306   3.366   3.469   9.354
 7820SOL    HW128307   3.274   3.506   9.361
 7820SOL    HW228308   3.404   3.489   9.264
 7821SOL     OW28309   2.452   3.349   9.801
 7821SOL    HW128310   2.494   3.291   9.731
 7821SOL    HW228311   2.408   3.428   9.757
 7822SOL     OW28312   2.117   3.210   9.600
 7822SOL    HW128313   2.021   3.211   9.573
 7822SOL    HW228314   2.129   3.263   9.684
 7823SOL     OW28315   1.934   2.028   9.628
 7823SOL    HW128316   1.917   2.111   9.574
 7823SOL    HW228317   2.024   1.991   9.606
 7824SOL     OW28318   3.045   3.197   9.429
 7824SOL    HW128319   2.946   3.186   9.431
 7824SOL    HW228320   3.079   3.212   9.522
 7825SOL     OW28321   3.087   2.187   9.759
 7825SOL    HW128322   3.152   2.113   9.748
 7825SOL    HW228323   3.107   2.237   9.843
 7826SOL     OW28324   2.456   2.607   9.962
 7826SOL    HW128325   2.506   2.692   9.943
 7826SOL    HW228326   2.368   2.609   9.914
 7827SOL     OW28327   2.721   3.236   9.326
 7827SOL    HW128328   2.675   3.251   9.414
 7827SOL    HW228329   2.765   3.321   9.296
 7828SOL     OW28330   2.945   2.846   9.397
 7828SOL    HW128331   2.922   2.899   9.315
 7828SOL    HW228332   3.026   2.790   9.378
 7829SOL     OW28333   1.941   3.102   9.963
 7829SOL    HW128334   1.940   3.055  10.051
 7829SOL    HW228335   2.023   3.074   9.912
 7830SOL     OW28336   2.290   2.286   9.830
 7830SOL    HW128337   2.320   2.214   9.768
 7830SOL    HW228338   2.251   2.246   9.913
 7831SOL     OW28339   2.632   3.192   9.611
 7831SOL    HW128340   2.586   3.105   9.628
 7831SOL    HW228341   2.723   3.189   9.652
 7832SOL     OW28342   3.214   1.914   9.478
 7832SOL    HW128343   3.249   1.873   9.394
 7832SOL    HW228344   3.124   1.876   9.498
 7833SOL     OW28345   1.901   2.939   9.610
 7833SOL    HW128346   2.000   2.928   9.601
 7833SOL    HW228347   1.861   2.853   9.642
 7834SOL     OW28348   2.737   3.508   9.647
 7834SOL    HW128349   2.660   3.473   9.593
 7834SOL    HW228350   2.705   3.579   9.709
 7835SOL     OW28351   2.092   4.352   0.113
 7835SOL    HW128352   1.999   4.350   0.150
 7835SOL    HW228353   2.093   4.313   0.021
 7836SOL     OW28354   2.087   3.999   0.996
 7836SOL    HW128355   2.122   3.982   1.088
 7836SOL    HW228356   1.999   3.954   0.984
 7837SOL     OW28357   2.431   4.999   1.165
 7837SOL    HW128358   2.338   4.992   1.128
 7837SOL    HW228359   2.442   5.088   1.209
 7838SOL     OW28360   3.417   5.235   0.703
 7838SOL    HW128361   3.360   5.219   0.784
 7838SOL    HW228362   3.358   5.245   0.623
 7839SOL     OW28363   2.997   4.427   0.717
 7839SOL    HW128364   3.054   4.505   0.692
 7839SOL    HW228365   2.937   4.453   0.793
 7840SOL     OW28366   3.617   4.331   0.231
 7840SOL    HW128367   3.605   4.318   0.132
 7840SOL    HW228368   3.587   4.250   0.280
 7841SOL     OW28369   2.630   4.868   1.023
 7841SOL    HW128370   2.552   4.885   1.083
 7841SOL    HW228371   2.664   4.955   0.987
 7842SOL     OW28372   2.712   4.522   1.823
 7842SOL    HW128373   2.708   4.598   1.888
 7842SOL    HW228374   2.734   4.558   1.732
 7843SOL     OW28375   2.547   4.736   0.665
 7843SOL    HW128376   2.616   4.720   0.735
 7843SOL    HW228377   2.474   4.793   0.703
 7844SOL     OW28378   2.548   4.885   1.803
 7844SOL    HW128379   2.608   4.964   1.817
 7844SOL    HW228380   2.462   4.916   1.762
 7845SOL     OW28381   2.197   5.159   1.061
 7845SOL    HW128382   2.119   5.128   1.008
 7845SOL    HW228383   2.255   5.217   1.004
 7846SOL     OW28384   3.322   5.229   1.339
 7846SOL    HW128385   3.346   5.323   1.365
 7846SOL    HW228386   3.306   5.175   1.421
 7847SOL     OW28387   2.300   4.116   1.499
 7847SOL    HW128388   2.382   4.060   1.508
 7847SOL    HW228389   2.219   4.058   1.503
 7848SOL     OW28390   3.465   4.171   0.737
 7848SOL    HW128391   3.391   4.217   0.687
 7848SOL    HW228392   3.516   4.239   0.790
 7849SOL     OW28393   2.093   5.437   0.483
 7849SOL    HW128394   2.127   5.514   0.537
 7849SOL    HW228395   2.137   5.437   0.393
 7850SOL     OW28396   2.989   5.065   1.690
 7850SOL    HW128397   3.036   5.065   1.778
 7850SOL    HW228398   2.941   4.978   1.679
 7851SOL     OW28399   2.092   5.158   0.538
 7851SOL    HW128400   2.066   5.254   0.538
 7851SOL    HW228401   2.021   5.104   0.583
 7852SOL     OW28402   2.102   4.815   0.886
 7852SOL    HW128403   2.116   4.731   0.938
 7852SOL    HW228404   2.047   4.879   0.941
 7853SOL     OW28405   2.482   5.510   1.439
 7853SOL    HW128406   2.390   5.493   1.474
 7853SOL    HW228407   2.510   5.602   1.465
 7854SOL     OW28408   3.456   3.838   1.480
 7854SOL    HW128409   3.438   3.905   1.408
 7854SOL    HW228410   3.453   3.884   1.569
 7855SOL     OW28411   1.984   4.367   0.563
 7855SOL    HW128412   1.939   4.279   0.580
 7855SOL    HW228413   1.983   4.421   0.647
 7856SOL     OW28414   3.704   5.491   0.359
 7856SOL    HW128415   3.758   5.462   0.439
 7856SOL    HW228416   3.734   5.581   0.330
 7857SOL     OW28417   1.889   5.320   0.117
 7857SOL    HW128418   1.870   5.224   0.138
 7857SOL    HW228419   1.856   5.378   0.192
 7858SOL     OW28420   3.551   4.646   0.612
 7858SOL    HW128421   3.646   4.617   0.620
 7858SOL    HW228422   3.543   4.711   0.537
 7859SOL     OW28423   3.503   4.832   0.432
 7859SOL    HW128424   3.589   4.834   0.380
 7859SOL    HW228425   3.517   4.879   0.520
 7860SOL     OW28426   1.975   4.461   1.597
 7860SOL    HW128427   2.063   4.448   1.642
 7860SOL    HW228428   1.962   4.558   1.575
 7861SOL     OW28429   2.475   5.089   0.726
 7861SOL    HW128430   2.426   5.002   0.735
 7861SOL    HW228431   2.452   5.132   0.639
 7862SOL     OW28432   3.155   4.952   1.423
 7862SOL    HW128433   3.192   4.879   1.365
 7862SOL    HW228434   3.207   4.957   1.508
 7863SOL     OW28435   2.671   3.728   0.502
 7863SOL    HW128436   2.711   3.819   0.493
 7863SOL    HW228437   2.571   3.736   0.508
 7864SOL     OW28438   2.059   4.700   1.264
 7864SOL    HW128439   2.148   4.655   1.250
 7864SOL    HW228440   1.986   4.635   1.245
 7865SOL     OW28441   3.387   4.723   0.190
 7865SOL    HW128442   3.324   4.647   0.203
 7865SOL    HW228443   3.435   4.741   0.276
 7866SOL     OW28444   3.049   5.516   1.616
 7866SOL    HW128445   3.073   5.576   1.540
 7866SOL    HW228446   3.056   5.421   1.586
 7867SOL     OW28447   2.179   3.975   1.801
 7867SOL    HW128448   2.250   4.046   1.807
 7867SOL    HW228449   2.091   4.014   1.829
 7868SOL     OW28450   3.328   5.141   0.953
 7868SOL    HW128451   3.269   5.147   1.033
 7868SOL    HW228452   3.313   5.053   0.907
 7869SOL     OW28453   3.529   5.438   0.572
 7869SOL    HW128454   3.488   5.415   0.484
 7869SOL    HW228455   3.511   5.364   0.637
 7870SOL     OW28456   2.460   4.453   0.270
 7870SOL    HW128457   2.484   4.522   0.202
 7870SOL    HW228458   2.382   4.486   0.324
 7871SOL     OW28459   3.143   4.069   0.944
 7871SOL    HW128460   3.057   4.019   0.931
 7871SOL    HW228461   3.205   4.015   1.000
 7872SOL     OW28462   3.438   5.386   0.307
 7872SOL    HW128463   3.527   5.432   0.310
 7872SOL    HW228464   3.417   5.362   0.212
 7873SOL     OW28465   2.669   4.329   1.465
 7873SOL    HW128466   2.622   4.326   1.554
 7873SOL    HW228467   2.618   4.274   1.399
 7874SOL     OW28468   3.256   4.193   1.674
 7874SOL    HW128469   3.236   4.236   1.762
 7874SOL    HW228470   3.334   4.131   1.683
 7875SOL     OW28471   2.835   4.614   1.572
 7875SOL    HW128472   2.881   4.530   1.543
 7875SOL    HW228473   2.779   4.648   1.497
 7876SOL     OW28474   2.853   4.134   1.242
 7876SOL    HW128475   2.776   4.168   1.296
 7876SOL    HW228476   2.819   4.083   1.163
 7877SOL     OW28477   2.903   4.425   0.429
 7877SOL    HW128478   2.929   4.421   0.525
 7877SOL    HW228479   2.818   4.374   0.415
 7878SOL     OW28480   1.938   4.535   0.789
 7878SOL    HW128481   2.037   4.523   0.798
 7878SOL    HW228482   1.914   4.630   0.810
 7879SOL     OW28483   1.992   5.545   1.571
 7879SOL    HW128484   1.982   5.530   1.670
 7879SOL    HW228485   1.906   5.581   1.535
 7880SOL     OW28486   2.727   4.072   0.195
 7880SOL    HW128487   2.786   4.135   0.146
 7880SOL    HW228488   2.746   3.978   0.166
 7881SOL     OW28489   3.581   4.309   1.831
 7881SOL    HW128490   3.555   4.398   1.795
 7881SOL    HW228491   3.579   4.241   1.758
 7882SOL     OW28492   3.224   4.868   0.545
 7882SOL    HW128493   3.307   4.839   0.497
 7882SOL    HW228494   3.175   4.935   0.489
 7883SOL     OW28495   2.412   3.920   0.885
 7883SOL    HW128496   2.407   3.915   0.985
 7883SOL    HW228497   2.414   4.016   0.856
 7884SOL     OW28498   2.870   5.180   0.477
 7884SOL    HW128499   2.824   5.252   0.425
 7884SOL    HW228500   2.866   5.200   0.575
 7885SOL     OW28501   3.657   4.790   0.873
 7885SOL    HW128502   3.595   4.775   0.797
 7885SOL    HW228503   3.605   4.801   0.958
 7886SOL     OW28504   3.089   5.274   1.506
 7886SOL    HW128505   3.095   5.197   1.570
 7886SOL    HW228506   3.037   5.248   1.426
 7887SOL     OW28507   3.320   4.459   0.728
 7887SOL    HW128508   3.315   4.394   0.803
 7887SOL    HW228509   3.400   4.518   0.741
 7888SOL     OW28510   2.323   4.990   1.727
 7888SOL    HW128511   2.273   4.991   1.641
 7888SOL    HW228512   2.260   4.972   1.803
 7889SOL     OW28513   2.973   5.500   0.237
 7889SOL    HW128514   2.913   5.438   0.287
 7889SOL    HW228515   3.004   5.456   0.152
 7890SOL     OW28516   2.064   4.009   1.498
 7890SOL    HW128517   1.984   4.069   1.485
 7890SOL    HW228518   2.054   3.960   1.584
 7891SOL     OW28519   3.494   5.101   0.081
 7891SOL    HW128520   3.462   5.195   0.071
 7891SOL    HW228521   3.418   5.038   0.069
 7892SOL     OW28522   2.326   5.467   0.323
 7892SOL    HW128523   2.359   5.506   0.409
 7892SOL    HW228524   2.402   5.460   0.258
 7893SOL     OW28525   3.262   3.831   0.426
 7893SOL    HW128526   3.238   3.794   0.336
 7893SOL    HW228527   3.361   3.847   0.430
 7894SOL     OW28528   2.111   5.509   1.241
 7894SOL    HW128529   2.168   5.444   1.291
 7894SOL    HW228530   2.095   5.476   1.148
 7895SOL     OW28531   2.802   5.422   0.904
 7895SOL    HW128532   2.882   5.365   0.925
 7895SOL    HW228533   2.753   5.382   0.827
 7896SOL     OW28534   2.244   4.424   0.480
 7896SOL    HW128535   2.289   4.334   0.477
 7896SOL    HW228536   2.150   4.413   0.513
 7897SOL     OW28537   2.643   3.988   1.749
 7897SOL    HW128538   2.710   3.927   1.792
 7897SOL    HW228539   2.570   4.007   1.814
 7898SOL     OW28540   2.750   5.238   1.195
 7898SOL    HW128541   2.727   5.213   1.101
 7898SOL    HW228542   2.811   5.169   1.234
 7899SOL     OW28543   3.213   4.314   1.433
 7899SOL    HW128544   3.241   4.271   1.518
 7899SOL    HW228545   3.238   4.410   1.434
 7900SOL     OW28546   2.665   5.126   0.924
 7900SOL    HW128547   2.755   5.140   0.882
 7900SOL    HW228548   2.594   5.128   0.853
 7901SOL     OW28549   2.401   3.788   0.512
 7901SOL    HW128550   2.320   3.789   0.570
 7901SOL    HW228551   2.404   3.871   0.457
 7902SOL     OW28552   3.296   4.912   0.041
 7902SOL    HW128553   3.328   4.836   0.098
 7902SOL    HW228554   3.204   4.939   0.071
 7903SOL     OW28555   2.797   3.960   0.480
 7903SOL    HW128556   2.749   4.001   0.402
 7903SOL    HW228557   2.896   3.958   0.461
 7904SOL     OW28558   2.938   4.407   1.464
 7904SOL    HW128559   2.858   4.346   1.467
 7904SOL    HW228560   3.019   4.354   1.440
 7905SOL     OW28561   3.089   5.294   0.793
 7905SOL    HW128562   3.110   5.368   0.728
 7905SOL    HW228563   3.157   5.294   0.866
 7906SOL     OW28564   2.321   4.876   0.741
 7906SOL    HW128565   2.250   4.849   0.806
 7906SOL    HW228566   2.295   4.848   0.648
 7907SOL     OW28567   3.133   5.521   0.591
 7907SOL    HW128568   3.177   5.585   0.527
 7907SOL    HW228569   3.083   5.573   0.661
 7908SOL     OW28570   2.894   4.273   0.016
 7908SOL    HW128571   2.853   4.355  -0.023
 7908SOL    HW228572   2.958   4.299   0.089
 7909SOL     OW28573   1.940   4.280   1.386
 7909SOL    HW128574   2.032   4.279   1.345
 7909SOL    HW228575   1.934   4.354   1.453
 7910SOL     OW28576   2.423   3.946   1.147
 7910SOL    HW128577   2.461   3.862   1.184
 7910SOL    HW228578   2.335   3.965   1.191
 7911SOL     OW28579   2.728   4.178   0.642
 7911SOL    HW128580   2.696   4.250   0.580
 7911SOL    HW228581   2.752   4.097   0.589
 7912SOL     OW28582   2.879   3.763   0.753
 7912SOL    HW128583   2.807   3.768   0.684
 7912SOL    HW228584   2.855   3.694   0.822
 7913SOL     OW28585   3.291   4.897   0.867
 7913SOL    HW128586   3.236   4.813   0.860
 7913SOL    HW228587   3.317   4.926   0.775
 7914SOL     OW28588   3.328   4.314   0.992
 7914SOL    HW128589   3.298   4.219   0.999
 7914SOL    HW228590   3.401   4.330   1.058
 7915SOL     OW28591   3.719   4.557   0.377
 7915SOL    HW128592   3.761   4.493   0.441
 7915SOL    HW228593   3.681   4.506   0.299
 7916SOL     OW28594   2.350   5.109   0.174
 7916SOL    HW128595   2.263   5.094   0.221
 7916SOL    HW228596   2.333   5.135   0.079
 7917SOL     OW28597   3.526   5.004   0.657
 7917SOL    HW128598   3.625   5.012   0.671
 7917SOL    HW228599   3.481   5.088   0.688
 7918SOL     OW28600   3.252   4.299   0.078
 7918SOL    HW128601   3.198   4.278   0.159
 7918SOL    HW228602   3.343   4.258   0.087
 7919SOL     OW28603   2.389   3.980   0.328
 7919SOL    HW128604   2.416   3.921   0.253
 7919SOL    HW228605   2.389   4.075   0.297
 7920SOL     OW28606   3.616   4.947   1.588
 7920SOL    HW128607   3.707   4.908   1.575
 7920SOL    HW228608   3.624   5.043   1.612
 7921SOL     OW28609   2.926   5.071   1.340
 7921SOL    HW128610   2.846   5.048   1.395
 7921SOL    HW228611   3.009   5.045   1.389
 7922SOL     OW28612   3.454   5.353   1.625
 7922SOL    HW128613   3.481   5.387   1.535
 7922SOL    HW228614   3.533   5.315   1.671
 7923SOL     OW28615   2.973   4.919   1.100
 7923SOL    HW128616   2.933   4.963   1.181
 7923SOL    HW228617   2.932   4.956   1.017
 7924SOL     OW28618   3.500   4.823   1.079
 7924SOL    HW128619   3.505   4.904   1.138
 7924SOL    HW228620   3.414   4.825   1.028
 7925SOL     OW28621   2.777   3.813   1.402
 7925SOL    HW128622   2.802   3.793   1.307
 7925SOL    HW228623   2.849   3.869   1.444
 7926SOL     OW28624   2.842   4.840   1.719
 7926SOL    HW128625   2.743   4.846   1.729
 7926SOL    HW228626   2.865   4.760   1.663
 7927SOL     OW28627   2.567   4.774   0.368
 7927SOL    HW128628   2.553   4.781   0.467
 7927SOL    HW228629   2.651   4.723   0.350
 7928SOL     OW28630   2.272   4.537   1.251
 7928SOL    HW128631   2.358   4.549   1.301
 7928SOL    HW228632   2.230   4.450   1.278
 7929SOL     OW28633   3.136   4.110   1.262
 7929SOL    HW128634   3.157   4.184   1.326
 7929SOL    HW228635   3.047   4.127   1.219
 7930SOL     OW28636   1.926   5.288   1.331
 7930SOL    HW128637   1.880   5.370   1.297
 7930SOL    HW228638   2.024   5.307   1.340
 7931SOL     OW28639   2.229   4.824   0.501
 7931SOL    HW128640   2.222   4.907   0.445
 7931SOL    HW228641   2.233   4.744   0.441
 7932SOL     OW28642   2.428   4.261   0.865
 7932SOL    HW128643   2.440   4.327   0.791
 7932SOL    HW228644   2.474   4.295   0.948
 7933SOL     OW28645   3.114   5.072   0.388
 7933SOL    HW128646   3.164   5.149   0.428
 7933SOL    HW228647   3.019   5.074   0.420
 7934SOL     OW28648   3.134   5.169   1.142
 7934SOL    HW128649   3.181   5.182   1.229
 7934SOL    HW228650   3.068   5.095   1.151
 7935SOL     OW28651   3.444   4.363   0.472
 7935SOL    HW128652   3.413   4.424   0.545
 7935SOL    HW228653   3.494   4.415   0.403
 7936SOL     OW28654   2.216   5.234   1.329
 7936SOL    HW128655   2.195   5.190   1.242
 7936SOL    HW228656   2.313   5.260   1.332
 7937SOL     OW28657   2.264   4.475   1.598
 7937SOL    HW128658   2.332   4.530   1.551
 7937SOL    HW228659   2.304   4.387   1.625
 7938SOL     OW28660   3.449   4.503   1.670
 7938SOL    HW128661   3.357   4.541   1.665
 7938SOL    HW228662   3.509   4.550   1.605
 7939SOL     OW28663   2.875   3.829   1.770
 7939SOL    HW128664   2.881   3.914   1.718
 7939SOL    HW228665   2.907   3.753   1.713
 7940SOL     OW28666   2.366   3.774   1.740
 7940SOL    HW128667   2.324   3.717   1.670
 7940SOL    HW228668   2.300   3.843   1.772
 7941SOL     OW28669   2.435   4.594   1.029
 7941SOL    HW128670   2.479   4.683   1.020
 7941SOL    HW228671   2.372   4.594   1.106
 7942SOL     OW28672   3.222   4.586   1.045
 7942SOL    HW128673   3.147   4.586   0.979
 7942SOL    HW228674   3.259   4.494   1.054
 7943SOL     OW28675   3.071   4.249   0.275
 7943SOL    HW128676   3.084   4.165   0.329
 7943SOL    HW228677   3.042   4.323   0.335
 7944SOL     OW28678   2.169   3.937   1.231
 7944SOL    HW128679   2.146   3.974   1.321
 7944SOL    HW228680   2.139   3.842   1.225
 7945SOL     OW28681   1.899   5.034   1.282
 7945SOL    HW128682   1.952   4.985   1.350
 7945SOL    HW228683   1.921   5.132   1.287
 7946SOL     OW28684   2.594   4.358   1.064
 7946SOL    HW128685   2.653   4.332   0.988
 7946SOL    HW228686   2.566   4.454   1.053
 7947SOL     OW28687   3.590   4.659   1.854
 7947SOL    HW128688   3.544   4.652   1.765
 7947SOL    HW228689   3.528   4.703   1.920
 7948SOL     OW28690   2.169   3.787   0.618
 7948SOL    HW128691   2.158   3.881   0.651
 7948SOL    HW228692   2.164   3.724   0.695
 7949SOL     OW28693   3.484   4.091   0.374
 7949SOL    HW128694   3.486   4.015   0.438
 7949SOL    HW228695   3.436   4.168   0.414
 7950SOL     OW28696   2.885   4.490   0.966
 7950SOL    HW128697   2.900   4.511   1.062
 7950SOL    HW228698   2.855   4.395   0.957
 7951SOL     OW28699   2.842   5.297   1.700
 7951SOL    HW128700   2.822   5.341   1.612
 7951SOL    HW228701   2.881   5.206   1.684
 7952SOL     OW28702   3.721   5.242   1.605
 7952SOL    HW128703   3.735   5.269   1.510
 7952SOL    HW228704   3.804   5.264   1.658
 7953SOL     OW28705   2.212   4.622   1.804
 7953SOL    HW128706   2.288   4.666   1.852
 7953SOL    HW228707   2.247   4.575   1.722
 7954SOL     OW28708   3.402   3.998   0.125
 7954SOL    HW128709   3.341   3.923   0.148
 7954SOL    HW228710   3.424   4.050   0.208
 7955SOL     OW28711   3.165   4.562   0.042
 7955SOL    HW128712   3.199   4.469   0.057
 7955SOL    HW228713   3.183   4.589  -0.053
 7956SOL     OW28714   2.930   5.057   0.849
 7956SOL    HW128715   2.937   4.973   0.794
 7956SOL    HW228716   2.992   5.126   0.813
 7957SOL     OW28717   2.181   4.534   0.949
 7957SOL    HW128718   2.274   4.570   0.954
 7957SOL    HW228719   2.175   4.449   1.001
 7958SOL     OW28720   2.201   4.233   1.006
 7958SOL    HW128721   2.149   4.150   0.989
 7958SOL    HW228722   2.278   4.238   0.942
 7959SOL     OW28723   3.000   4.104   1.678
 7959SOL    HW128724   2.955   4.167   1.742
 7959SOL    HW228725   3.093   4.135   1.661
 7960SOL     OW28726   3.022   3.931   1.477
 7960SOL    HW128727   3.022   3.995   1.554
 7960SOL    HW228728   3.050   3.979   1.394
 7961SOL     OW28729   1.870   5.050   0.200
 7961SOL    HW128730   1.777   5.071   0.169
 7961SOL    HW228731   1.880   4.951   0.213
 7962SOL     OW28732   1.950   5.525   0.927
 7962SOL    HW128733   1.908   5.439   0.900
 7962SOL    HW228734   2.044   5.528   0.893
 7963SOL     OW28735   2.366   5.292   0.910
 7963SOL    HW128736   2.432   5.366   0.919
 7963SOL    HW228737   2.410   5.213   0.868
 7964SOL     OW28738   2.864   4.520   1.238
 7964SOL    HW128739   2.905   4.488   1.324
 7964SOL    HW228740   2.768   4.493   1.235
 7965SOL     OW28741   1.902   4.268   1.114
 7965SOL    HW128742   1.987   4.235   1.073
 7965SOL    HW228743   1.915   4.283   1.212
 7966SOL     OW28744   2.051   4.244   1.722
 7966SOL    HW128745   2.110   4.204   1.652
 7966SOL    HW228746   1.993   4.315   1.681
 7967SOL     OW28747   2.677   4.296   0.325
 7967SOL    HW128748   2.684   4.207   0.279
 7967SOL    HW228749   2.583   4.330   0.317
 7968SOL     OW28750   3.519   4.328   1.206
 7968SOL    HW128751   3.481   4.259   1.268
 7968SOL    HW228752   3.601   4.292   1.162
 7969SOL     OW28753   2.114   5.288   1.744
 7969SOL    HW128754   2.084   5.345   1.820
 7969SOL    HW228755   2.107   5.191   1.770
 7970SOL     OW28756   2.533   4.188   1.269
 7970SOL    HW128757   2.499   4.099   1.239
 7970SOL    HW228758   2.559   4.242   1.189
 7971SOL     OW28759   2.792   5.402   1.465
 7971SOL    HW128760   2.768   5.384   1.370
 7971SOL    HW228761   2.822   5.496   1.475
 7972SOL     OW28762   2.335   4.224   0.191
 7972SOL    HW128763   2.396   4.304   0.195
 7972SOL    HW228764   2.240   4.255   0.198
 7973SOL     OW28765   2.021   4.861   1.466
 7973SOL    HW128766   2.043   4.800   1.542
 7973SOL    HW228767   2.031   4.812   1.380
 7974SOL     OW28768   3.209   4.783   1.234
 7974SOL    HW128769   3.233   4.720   1.160
 7974SOL    HW228770   3.119   4.823   1.216
 7975SOL     OW28771   3.164   4.579   0.309
 7975SOL    HW128772   3.078   4.548   0.351
 7975SOL    HW228773   3.160   4.565   0.210
 7976SOL     OW28774   3.621   5.471   1.154
 7976SOL    HW128775   3.682   5.501   1.081
 7976SOL    HW228776   3.583   5.382   1.132
 7977SOL     OW28777   3.114   5.455   1.128
 7977SOL    HW128778   3.198   5.460   1.074
 7977SOL    HW228779   3.091   5.359   1.146
 7978SOL     OW28780   1.945   4.982   1.022
 7978SOL    HW128781   1.940   4.981   1.122
 7978SOL    HW228782   1.862   4.941   0.984
 7979SOL     OW28783   2.550   5.386   1.716
 7979SOL    HW128784   2.494   5.467   1.725
 7979SOL    HW228785   2.602   5.390   1.630
 7980SOL     OW28786   2.765   3.810   0.133
 7980SOL    HW128787   2.816   3.811   0.047
 7980SOL    HW228788   2.821   3.768   0.204
 7981SOL     OW28789   3.588   3.859   0.523
 7981SOL    HW128790   3.661   3.842   0.456
 7981SOL    HW228791   3.557   3.772   0.561
 7982SOL     OW28792   3.250   5.297   0.477
 7982SOL    HW128793   3.317   5.309   0.403
 7982SOL    HW228794   3.210   5.386   0.500
 7983SOL     OW28795   1.992   5.518   1.851
 7983SOL    HW128796   1.951   5.444   1.904
 7983SOL    HW228797   2.056   5.569   1.909
 7984SOL     OW28798   3.142   4.651   0.672
 7984SOL    HW128799   3.202   4.570   0.674
 7984SOL    HW228800   3.182   4.720   0.612
 7985SOL     OW28801   2.692   4.997   1.422
 7985SOL    HW128802   2.687   5.030   1.517
 7985SOL    HW228803   2.606   5.016   1.376
 7986SOL     OW28804   2.534   5.340   0.154
 7986SOL    HW128805   2.543   5.350   0.055
 7986SOL    HW228806   2.494   5.251   0.175
 7987SOL     OW28807   3.512   5.444   1.394
 7987SOL    HW128808   3.565   5.454   1.310
 7987SOL    HW228809   3.485   5.534   1.428
 7988SOL     OW28810   3.703   3.899   0.963
 7988SOL    HW128811   3.742   3.814   0.927
 7988SOL    HW228812   3.605   3.901   0.944
 7989SOL     OW28813   2.125   4.050   0.720
 7989SOL    HW128814   2.046   4.101   0.686
 7989SOL    HW228815   2.116   4.035   0.818
 7990SOL     OW28816   3.056   5.336   0.031
 7990SOL    HW128817   3.062   5.243   0.068
 7990SOL    HW228818   2.997   5.336  -0.049
 7991SOL     OW28819   2.684   4.726   1.372
 7991SOL    HW128820   2.724   4.725   1.280
 7991SOL    HW228821   2.694   4.818   1.412
 7992SOL     OW28822   2.778   4.634   0.291
 7992SOL    HW128823   2.841   4.672   0.223
 7992SOL    HW228824   2.818   4.551   0.330
 7993SOL     OW28825   3.366   5.331   0.044
 7993SOL    HW128826   3.274   5.368   0.051
 7993SOL    HW228827   3.404   5.351  -0.046
 7994SOL     OW28828   3.476   5.016   1.289
 7994SOL    HW128829   3.536   5.019   1.369
 7994SOL    HW228830   3.401   5.080   1.302
 7995SOL     OW28831   2.901   4.822   0.696
 7995SOL    HW128832   2.831   4.775   0.750
 7995SOL    HW228833   2.960   4.754   0.653
 7996SOL     OW28834   2.876   3.960   0.971
 7996SOL    HW128835   2.868   3.924   0.878
 7996SOL    HW228836   2.874   3.884   1.036
 7997SOL     OW28837   2.452   5.211   0.491
 7997SOL    HW128838   2.494   5.153   0.421
 7997SOL    HW228839   2.408   5.290   0.447
 7998SOL     OW28840   3.571   4.109   1.381
 7998SOL    HW128841   3.644   4.178   1.385
 7998SOL    HW228842   3.599   4.034   1.322
 7999SOL     OW28843   2.117   5.072   0.290
 7999SOL    HW128844   2.021   5.073   0.263
 7999SOL    HW228845   2.129   5.125   0.374
 8000SOL     OW28846   1.967   4.737   1.726
 8000SOL    HW128847   1.890   4.704   1.780
 8000SOL    HW228848   2.052   4.707   1.768
 8001SOL     OW28849   2.534   3.927   1.489
 8001SOL    HW128850   2.624   3.911   1.449
 8001SOL    HW228851   2.542   3.932   1.588
 8002SOL     OW28852   1.937   4.069   0.033
 8002SOL    HW128853   1.845   4.041   0.004
 8002SOL    HW228854   1.968   4.146  -0.023
 8003SOL     OW28855   3.302   4.580   1.398
 8003SOL    HW128856   3.245   4.632   1.335
 8003SOL    HW228857   3.398   4.592   1.374
 8004SOL     OW28858   1.934   3.890   0.318
 8004SOL    HW128859   1.917   3.973   0.264
 8004SOL    HW228860   2.024   3.853   0.296
 8005SOL     OW28861   3.045   5.059   0.119
 8005SOL    HW128862   2.946   5.048   0.121
 8005SOL    HW228863   3.079   5.074   0.212
 8006SOL     OW28864   2.475   4.566   1.431
 8006SOL    HW128865   2.531   4.647   1.414
 8006SOL    HW228866   2.534   4.486   1.434
 8007SOL     OW28867   3.355   5.491   0.959
 8007SOL    HW128868   3.388   5.555   0.890
 8007SOL    HW228869   3.421   5.485   1.034
 8008SOL     OW28870   2.578   4.289   1.708
 8008SOL    HW128871   2.597   4.354   1.782
 8008SOL    HW228872   2.638   4.209   1.717
 8009SOL     OW28873   3.312   4.944   1.633
 8009SOL    HW128874   3.303   4.934   1.732
 8009SOL    HW228875   3.408   4.937   1.607
 8010SOL     OW28876   2.252   5.465   1.560
 8010SOL    HW128877   2.161   5.506   1.558
 8010SOL    HW228878   2.245   5.371   1.592
 8011SOL     OW28879   3.536   4.607   1.254
 8011SOL    HW128880   3.509   4.518   1.217
 8011SOL    HW228881   3.537   4.675   1.181
 8012SOL     OW28882   3.087   4.049   0.449
 8012SOL    HW128883   3.152   3.975   0.438
 8012SOL    HW228884   3.107   4.099   0.533
 8013SOL     OW28885   2.456   4.469   0.652
 8013SOL    HW128886   2.506   4.554   0.633
 8013SOL    HW228887   2.368   4.471   0.604
 8014SOL     OW28888   3.639   4.066   1.642
 8014SOL    HW128889   3.622   4.097   1.548
 8014SOL    HW228890   3.555   4.029   1.680
 8015SOL     OW28891   3.592   4.658   1.517
 8015SOL    HW128892   3.630   4.749   1.532
 8015SOL    HW228893   3.584   4.641   1.418
 8016SOL     OW28894   2.721   5.098   0.016
 8016SOL    HW128895   2.675   5.113   0.104
 8016SOL    HW228896   2.765   5.183  -0.014
 8017SOL     OW28897   2.523   5.514   0.953
 8017SOL    HW128898   2.477   5.602   0.940
 8017SOL    HW228899   2.622   5.526   0.946
 8018SOL     OW28900   2.721   4.680   0.861
 8018SOL    HW128901   2.775   4.611   0.909
 8018SOL    HW228902   2.689   4.749   0.927
 8019SOL     OW28903   2.945   4.708   0.087
 8019SOL    HW128904   2.922   4.761   0.005
 8019SOL    HW228905   3.026   4.652   0.068
 8020SOL     OW28906   3.723   5.293   0.851
 8020SOL    HW128907   3.652   5.281   0.781
 8020SOL    HW228908   3.724   5.214   0.911
 8021SOL     OW28909   2.083   5.038   1.844
 8021SOL    HW128910   2.018   4.965   1.823
 8021SOL    HW228911   2.087   5.052   1.942
 8022SOL     OW28912   1.941   4.964   0.653
 8022SOL    HW128913   1.940   4.917   0.741
 8022SOL    HW228914   2.023   4.936   0.602
 8023SOL     OW28915   2.534   5.115   1.624
 8023SOL    HW128916   2.456   5.065   1.662
 8023SOL    HW228917   2.531   5.210   1.655
 8024SOL     OW28918   3.686   3.916   1.227
 8024SOL    HW128919   3.682   3.826   1.271
 8024SOL    HW228920   3.689   3.905   1.128
 8025SOL     OW28921   2.290   4.148   0.520
 8025SOL    HW128922   2.320   4.076   0.458
 8025SOL    HW228923   2.251   4.108   0.603
 8026SOL     OW28924   3.567   5.211   1.104
 8026SOL    HW128925   3.474   5.186   1.077
 8026SOL    HW228926   3.593   5.161   1.186
 8027SOL     OW28927   2.179   4.271   1.280
 8027SOL    HW128928   2.217   4.212   1.352
 8027SOL    HW228929   2.219   4.245   1.192
 8028SOL     OW28930   2.674   5.310   0.687
 8028SOL    HW128931   2.706   5.320   0.593
 8028SOL    HW228932   2.595   5.248   0.689
 8029SOL     OW28933   3.286   3.938   1.112
 8029SOL    HW128934   3.338   3.873   1.167
 8029SOL    HW228935   3.237   4.001   1.173
 8030SOL     OW28936   2.863   3.758   1.154
 8030SOL    HW128937   2.800   3.686   1.123
 8030SOL    HW228938   2.956   3.722   1.154
 8031SOL     OW28939   2.632   5.054   0.301
 8031SOL    HW128940   2.586   4.967   0.318
 8031SOL    HW228941   2.723   5.051   0.342
 8032SOL     OW28942   2.480   5.291   1.284
 8032SOL    HW128943   2.475   5.373   1.341
 8032SOL    HW228944   2.569   5.288   1.239
 8033SOL     OW28945   3.214   3.776   0.168
 8033SOL    HW128946   3.249   3.735   0.084
 8033SOL    HW228947   3.124   3.738   0.188
 8034SOL     OW28948   3.162   4.177   0.691
 8034SOL    HW128949   3.103   4.257   0.695
 8034SOL    HW228950   3.177   4.142   0.784
 8035SOL     OW28951   3.455   3.945   0.882
 8035SOL    HW128952   3.371   3.944   0.936
 8035SOL    HW228953   3.457   4.028   0.826
 8036SOL     OW28954   1.901   4.801   0.300
 8036SOL    HW128955   2.000   4.790   0.291
 8036SOL    HW228956   1.861   4.715   0.332
 8037SOL     OW28957   2.737   5.370   0.337
 8037SOL    HW128958   2.660   5.335   0.283
 8037SOL    HW228959   2.705   5.441   0.399
 8038SOL     OW28960   2.092   4.352   1.975
 8038SOL    HW128961   1.999   4.350   2.012
 8038SOL    HW228962   2.093   4.313   1.883
 8039SOL     OW28963   2.087   3.999   2.858
 8039SOL    HW128964   2.122   3.982   2.950
 8039SOL    HW228965   1.999   3.954   2.846
 8040SOL     OW28966   1.881   4.092   2.509
 8040SOL    HW128967   1.799   4.135   2.548
 8040SOL    HW228968   1.853   4.019   2.446
 8041SOL     OW28969   2.431   4.999   3.027
 8041SOL    HW128970   2.338   4.992   2.990
 8041SOL    HW228971   2.442   5.088   3.071
 8042SOL     OW28972   3.417   5.235   2.565
 8042SOL    HW128973   3.360   5.219   2.646
 8042SOL    HW228974   3.358   5.245   2.485
 8043SOL     OW28975   2.997   4.427   2.579
 8043SOL    HW128976   3.054   4.505   2.554
 8043SOL    HW228977   2.937   4.453   2.655
 8044SOL     OW28978   3.617   4.331   2.093
 8044SOL    HW128979   3.605   4.318   1.994
 8044SOL    HW228980   3.587   4.250   2.142
 8045SOL     OW28981   2.630   4.868   2.885
 8045SOL    HW128982   2.552   4.885   2.945
 8045SOL    HW228983   2.664   4.955   2.849
 8046SOL     OW28984   2.712   4.522   3.685
 8046SOL    HW128985   2.708   4.598   3.750
 8046SOL    HW228986   2.734   4.558   3.594
 8047SOL     OW28987   2.547   4.736   2.527
 8047SOL    HW128988   2.616   4.720   2.597
 8047SOL    HW228989   2.474   4.793   2.565
 8048SOL     OW28990   2.548   4.885   3.665
 8048SOL    HW128991   2.608   4.964   3.679
 8048SOL    HW228992   2.462   4.916   3.624
 8049SOL     OW28993   2.197   5.159   2.923
 8049SOL    HW128994   2.119   5.128   2.870
 8049SOL    HW228995   2.255   5.217   2.866
 8050SOL     OW28996   3.322   5.229   3.201
 8050SOL    HW128997   3.346   5.323   3.227
 8050SOL    HW228998   3.306   5.175   3.283
 8051SOL     OW28999   2.300   4.116   3.361
 8051SOL    HW129000   2.382   4.060   3.370
 8051SOL    HW229001   2.219   4.058   3.365
 8052SOL     OW29002   3.465   4.171   2.599
 8052SOL    HW129003   3.391   4.217   2.549
 8052SOL    HW229004   3.516   4.239   2.652
 8053SOL     OW29005   2.093   5.437   2.345
 8053SOL    HW129006   2.127   5.514   2.399
 8053SOL    HW229007   2.137   5.437   2.255
 8054SOL     OW29008   2.989   5.065   3.552
 8054SOL    HW129009   3.036   5.065   3.640
 8054SOL    HW229010   2.941   4.978   3.541
 8055SOL     OW29011   2.092   5.158   2.400
 8055SOL    HW129012   2.066   5.254   2.400
 8055SOL    HW229013   2.021   5.104   2.445
 8056SOL     OW29014   2.102   4.815   2.748
 8056SOL    HW129015   2.116   4.731   2.800
 8056SOL    HW229016   2.047   4.879   2.803
 8057SOL     OW29017   2.482   5.510   3.301
 8057SOL    HW129018   2.390   5.493   3.336
 8057SOL    HW229019   2.510   5.602   3.327
 8058SOL     OW29020   2.468   4.688   1.985
 8058SOL    HW129021   2.475   4.772   1.931
 8058SOL    HW229022   2.514   4.701   2.073
 8059SOL     OW29023   3.456   3.838   3.342
 8059SOL    HW129024   3.438   3.905   3.270
 8059SOL    HW229025   3.453   3.884   3.431
 8060SOL     OW29026   1.984   4.367   2.425
 8060SOL    HW129027   1.939   4.279   2.442
 8060SOL    HW229028   1.983   4.421   2.509
 8061SOL     OW29029   3.704   5.491   2.221
 8061SOL    HW129030   3.758   5.462   2.301
 8061SOL    HW229031   3.734   5.581   2.192
 8062SOL     OW29032   1.889   5.320   1.979
 8062SOL    HW129033   1.870   5.224   2.000
 8062SOL    HW229034   1.856   5.378   2.054
 8063SOL     OW29035   3.551   4.646   2.474
 8063SOL    HW129036   3.646   4.617   2.482
 8063SOL    HW229037   3.543   4.711   2.399
 8064SOL     OW29038   3.503   4.832   2.294
 8064SOL    HW129039   3.589   4.834   2.242
 8064SOL    HW229040   3.517   4.879   2.382
 8065SOL     OW29041   1.975   4.461   3.459
 8065SOL    HW129042   2.063   4.448   3.504
 8065SOL    HW229043   1.962   4.558   3.437
 8066SOL     OW29044   2.475   5.089   2.588
 8066SOL    HW129045   2.426   5.002   2.597
 8066SOL    HW229046   2.452   5.132   2.501
 8067SOL     OW29047   3.155   4.952   3.285
 8067SOL    HW129048   3.192   4.879   3.227
 8067SOL    HW229049   3.207   4.957   3.370
 8068SOL     OW29050   2.671   3.728   2.364
 8068SOL    HW129051   2.711   3.819   2.355
 8068SOL    HW229052   2.571   3.736   2.370
 8069SOL     OW29053   2.059   4.700   3.126
 8069SOL    HW129054   2.148   4.655   3.112
 8069SOL    HW229055   1.986   4.635   3.107
 8070SOL     OW29056   3.387   4.723   2.052
 8070SOL    HW129057   3.324   4.647   2.065
 8070SOL    HW229058   3.435   4.741   2.138
 8071SOL     OW29059   2.179   3.975   3.663
 8071SOL    HW129060   2.250   4.046   3.669
 8071SOL    HW229061   2.091   4.014   3.691
 8072SOL     OW29062   3.328   5.141   2.815
 8072SOL    HW129063   3.269   5.147   2.895
 8072SOL    HW229064   3.313   5.053   2.769
 8073SOL     OW29065   3.529   5.438   2.434
 8073SOL    HW129066   3.488   5.415   2.346
 8073SOL    HW229067   3.511   5.364   2.499
 8074SOL     OW29068   2.460   4.453   2.132
 8074SOL    HW129069   2.484   4.522   2.064
 8074SOL    HW229070   2.382   4.486   2.186
 8075SOL     OW29071   3.143   4.069   2.806
 8075SOL    HW129072   3.057   4.019   2.793
 8075SOL    HW229073   3.205   4.015   2.862
 8076SOL     OW29074   3.438   5.386   2.169
 8076SOL    HW129075   3.527   5.432   2.172
 8076SOL    HW229076   3.417   5.362   2.074
 8077SOL     OW29077   2.669   4.329   3.327
 8077SOL    HW129078   2.622   4.326   3.416
 8077SOL    HW229079   2.618   4.274   3.261
 8078SOL     OW29080   3.256   4.193   3.536
 8078SOL    HW129081   3.236   4.236   3.624
 8078SOL    HW229082   3.334   4.131   3.545
 8079SOL     OW29083   2.835   4.614   3.434
 8079SOL    HW129084   2.881   4.530   3.405
 8079SOL    HW229085   2.779   4.648   3.359
 8080SOL     OW29086   2.853   4.134   3.104
 8080SOL    HW129087   2.776   4.168   3.158
 8080SOL    HW229088   2.819   4.083   3.025
 8081SOL     OW29089   2.903   4.425   2.291
 8081SOL    HW129090   2.929   4.421   2.387
 8081SOL    HW229091   2.818   4.374   2.277
 8082SOL     OW29092   1.938   4.535   2.651
 8082SOL    HW129093   2.037   4.523   2.660
 8082SOL    HW229094   1.914   4.630   2.672
 8083SOL     OW29095   1.992   5.545   3.433
 8083SOL    HW129096   1.982   5.530   3.532
 8083SOL    HW229097   1.906   5.581   3.397
 8084SOL     OW29098   2.727   4.072   2.057
 8084SOL    HW129099   2.786   4.135   2.008
 8084SOL    HW229100   2.746   3.978   2.028
 8085SOL     OW29101   3.581   4.309   3.693
 8085SOL    HW129102   3.555   4.398   3.657
 8085SOL    HW229103   3.579   4.241   3.620
 8086SOL     OW29104   3.224   4.868   2.407
 8086SOL    HW129105   3.307   4.839   2.359
 8086SOL    HW229106   3.175   4.935   2.351
 8087SOL     OW29107   2.870   5.180   2.339
 8087SOL    HW129108   2.824   5.252   2.287
 8087SOL    HW229109   2.866   5.200   2.437
 8088SOL     OW29110   2.213   5.525   2.715
 8088SOL    HW129111   2.263   5.439   2.721
 8088SOL    HW229112   2.278   5.602   2.712
 8089SOL     OW29113   3.657   4.790   2.735
 8089SOL    HW129114   3.595   4.775   2.659
 8089SOL    HW229115   3.605   4.801   2.820
 8090SOL     OW29116   3.089   5.274   3.368
 8090SOL    HW129117   3.095   5.197   3.432
 8090SOL    HW229118   3.037   5.248   3.288
 8091SOL     OW29119   2.183   4.667   2.104
 8091SOL    HW129120   2.265   4.706   2.062
 8091SOL    HW229121   2.156   4.585   2.055
 8092SOL     OW29122   3.320   4.459   2.590
 8092SOL    HW129123   3.315   4.394   2.665
 8092SOL    HW229124   3.400   4.518   2.603
 8093SOL     OW29125   2.973   5.500   2.099
 8093SOL    HW129126   2.913   5.438   2.149
 8093SOL    HW229127   3.004   5.456   2.014
 8094SOL     OW29128   2.064   4.009   3.360
 8094SOL    HW129129   1.984   4.069   3.347
 8094SOL    HW229130   2.054   3.960   3.446
 8095SOL     OW29131   3.494   5.101   1.943
 8095SOL    HW129132   3.462   5.195   1.933
 8095SOL    HW229133   3.418   5.038   1.931
 8096SOL     OW29134   2.326   5.467   2.185
 8096SOL    HW129135   2.359   5.506   2.271
 8096SOL    HW229136   2.402   5.460   2.120
 8097SOL     OW29137   3.262   3.831   2.288
 8097SOL    HW129138   3.238   3.794   2.198
 8097SOL    HW229139   3.361   3.847   2.292
 8098SOL     OW29140   2.111   5.509   3.103
 8098SOL    HW129141   2.168   5.444   3.153
 8098SOL    HW229142   2.095   5.476   3.010
 8099SOL     OW29143   2.802   5.422   2.766
 8099SOL    HW129144   2.882   5.365   2.787
 8099SOL    HW229145   2.753   5.382   2.689
 8100SOL     OW29146   2.244   4.424   2.342
 8100SOL    HW129147   2.289   4.334   2.339
 8100SOL    HW229148   2.150   4.413   2.375
 8101SOL     OW29149   3.409   3.946   3.591
 8101SOL    HW129150   3.404   3.983   3.683
 8101SOL    HW229151   3.337   3.877   3.579
 8102SOL     OW29152   2.476   3.846   1.979
 8102SOL    HW129153   2.574   3.824   1.986
 8102SOL    HW229154   2.445   3.829   1.886
 8103SOL     OW29155   2.643   3.988   3.611
 8103SOL    HW129156   2.710   3.927   3.654
 8103SOL    HW229157   2.570   4.007   3.676
 8104SOL     OW29158   2.750   5.238   3.057
 8104SOL    HW129159   2.727   5.213   2.963
 8104SOL    HW229160   2.811   5.169   3.096
 8105SOL     OW29161   3.213   4.314   3.295
 8105SOL    HW129162   3.241   4.271   3.380
 8105SOL    HW229163   3.238   4.410   3.296
 8106SOL     OW29164   2.665   5.126   2.786
 8106SOL    HW129165   2.755   5.140   2.744
 8106SOL    HW229166   2.594   5.128   2.715
 8107SOL     OW29167   2.784   4.227   2.761
 8107SOL    HW129168   2.759   4.218   2.665
 8107SOL    HW229169   2.832   4.145   2.792
 8108SOL     OW29170   2.401   3.788   2.374
 8108SOL    HW129171   2.320   3.789   2.432
 8108SOL    HW229172   2.404   3.871   2.319
 8109SOL     OW29173   3.296   4.912   1.903
 8109SOL    HW129174   3.328   4.836   1.960
 8109SOL    HW229175   3.204   4.939   1.933
 8110SOL     OW29176   2.159   3.759   2.033
 8110SOL    HW129177   2.208   3.843   2.012
 8110SOL    HW229178   2.221   3.694   2.078
 8111SOL     OW29179   2.797   3.960   2.342
 8111SOL    HW129180   2.749   4.001   2.264
 8111SOL    HW229181   2.896   3.958   2.323
 8112SOL     OW29182   2.938   4.407   3.326
 8112SOL    HW129183   2.858   4.346   3.329
 8112SOL    HW229184   3.019   4.354   3.302
 8113SOL     OW29185   3.089   5.294   2.655
 8113SOL    HW129186   3.110   5.368   2.590
 8113SOL    HW229187   3.157   5.294   2.728
 8114SOL     OW29188   2.321   4.876   2.603
 8114SOL    HW129189   2.250   4.849   2.668
 8114SOL    HW229190   2.295   4.848   2.510
 8115SOL     OW29191   3.133   5.521   2.453
 8115SOL    HW129192   3.177   5.585   2.389
 8115SOL    HW229193   3.083   5.573   2.523
 8116SOL     OW29194   2.894   4.273   1.878
 8116SOL    HW129195   2.853   4.355   1.839
 8116SOL    HW229196   2.958   4.299   1.951
 8117SOL     OW29197   1.940   4.280   3.248
 8117SOL    HW129198   2.032   4.279   3.207
 8117SOL    HW229199   1.934   4.354   3.315
 8118SOL     OW29200   2.423   3.946   3.009
 8118SOL    HW129201   2.461   3.862   3.046
 8118SOL    HW229202   2.335   3.965   3.053
 8119SOL     OW29203   2.728   4.178   2.504
 8119SOL    HW129204   2.696   4.250   2.442
 8119SOL    HW229205   2.752   4.097   2.451
 8120SOL     OW29206   2.879   3.763   2.615
 8120SOL    HW129207   2.807   3.768   2.546
 8120SOL    HW229208   2.855   3.694   2.684
 8121SOL     OW29209   3.291   4.897   2.729
 8121SOL    HW129210   3.236   4.813   2.722
 8121SOL    HW229211   3.317   4.926   2.637
 8122SOL     OW29212   3.328   4.314   2.854
 8122SOL    HW129213   3.298   4.219   2.861
 8122SOL    HW229214   3.401   4.330   2.920
 8123SOL     OW29215   3.719   4.557   2.239
 8123SOL    HW129216   3.761   4.493   2.303
 8123SOL    HW229217   3.681   4.506   2.161
 8124SOL     OW29218   2.350   5.109   2.036
 8124SOL    HW129219   2.263   5.094   2.083
 8124SOL    HW229220   2.333   5.135   1.941
 8125SOL     OW29221   3.526   5.004   2.519
 8125SOL    HW129222   3.625   5.012   2.533
 8125SOL    HW229223   3.481   5.088   2.550
 8126SOL     OW29224   3.252   4.299   1.940
 8126SOL    HW129225   3.198   4.278   2.021
 8126SOL    HW229226   3.343   4.258   1.949
 8127SOL     OW29227   2.389   3.980   2.190
 8127SOL    HW129228   2.416   3.921   2.115
 8127SOL    HW229229   2.389   4.075   2.159
 8128SOL     OW29230   3.616   4.947   3.450
 8128SOL    HW129231   3.707   4.908   3.437
 8128SOL    HW229232   3.624   5.043   3.474
 8129SOL     OW29233   2.926   5.071   3.202
 8129SOL    HW129234   2.846   5.048   3.257
 8129SOL    HW229235   3.009   5.045   3.251
 8130SOL     OW29236   3.454   5.353   3.487
 8130SOL    HW129237   3.481   5.387   3.397
 8130SOL    HW229238   3.533   5.315   3.533
 8131SOL     OW29239   2.973   4.919   2.962
 8131SOL    HW129240   2.933   4.963   3.043
 8131SOL    HW229241   2.932   4.956   2.879
 8132SOL     OW29242   3.500   4.823   2.941
 8132SOL    HW129243   3.505   4.904   3.000
 8132SOL    HW229244   3.414   4.825   2.890
 8133SOL     OW29245   2.777   3.813   3.264
 8133SOL    HW129246   2.802   3.793   3.169
 8133SOL    HW229247   2.849   3.869   3.306
 8134SOL     OW29248   2.842   4.840   3.581
 8134SOL    HW129249   2.743   4.846   3.591
 8134SOL    HW229250   2.865   4.760   3.525
 8135SOL     OW29251   2.567   4.774   2.230
 8135SOL    HW129252   2.553   4.781   2.329
 8135SOL    HW229253   2.651   4.723   2.212
 8136SOL     OW29254   2.272   4.537   3.113
 8136SOL    HW129255   2.358   4.549   3.163
 8136SOL    HW229256   2.230   4.450   3.140
 8137SOL     OW29257   3.136   4.110   3.124
 8137SOL    HW129258   3.157   4.184   3.188
 8137SOL    HW229259   3.047   4.127   3.081
 8138SOL     OW29260   1.926   5.288   3.193
 8138SOL    HW129261   1.880   5.370   3.159
 8138SOL    HW229262   2.024   5.307   3.202
 8139SOL     OW29263   2.229   4.824   2.363
 8139SOL    HW129264   2.222   4.907   2.307
 8139SOL    HW229265   2.233   4.744   2.303
 8140SOL     OW29266   2.428   4.261   2.727
 8140SOL    HW129267   2.440   4.327   2.653
 8140SOL    HW229268   2.474   4.295   2.810
 8141SOL     OW29269   3.114   5.072   2.250
 8141SOL    HW129270   3.164   5.149   2.290
 8141SOL    HW229271   3.019   5.074   2.282
 8142SOL     OW29272   3.134   5.169   3.004
 8142SOL    HW129273   3.181   5.182   3.091
 8142SOL    HW229274   3.068   5.095   3.013
 8143SOL     OW29275   3.444   4.363   2.334
 8143SOL    HW129276   3.413   4.424   2.407
 8143SOL    HW229277   3.494   4.415   2.265
 8144SOL     OW29278   2.216   5.234   3.191
 8144SOL    HW129279   2.195   5.190   3.104
 8144SOL    HW229280   2.313   5.260   3.194
 8145SOL     OW29281   2.264   4.475   3.460
 8145SOL    HW129282   2.332   4.530   3.413
 8145SOL    HW229283   2.304   4.387   3.487
 8146SOL     OW29284   3.449   4.503   3.532
 8146SOL    HW129285   3.357   4.541   3.527
 8146SOL    HW229286   3.509   4.550   3.467
 8147SOL     OW29287   2.875   3.829   3.632
 8147SOL    HW129288   2.881   3.914   3.580
 8147SOL    HW229289   2.907   3.753   3.575
 8148SOL     OW29290   2.366   3.774   3.602
 8148SOL    HW129291   2.324   3.717   3.532
 8148SOL    HW229292   2.300   3.843   3.634
 8149SOL     OW29293   2.435   4.594   2.891
 8149SOL    HW129294   2.479   4.683   2.882
 8149SOL    HW229295   2.372   4.594   2.968
 8150SOL     OW29296   3.222   4.586   2.907
 8150SOL    HW129297   3.147   4.586   2.841
 8150SOL    HW229298   3.259   4.494   2.916
 8151SOL     OW29299   3.071   4.249   2.137
 8151SOL    HW129300   3.084   4.165   2.191
 8151SOL    HW229301   3.042   4.323   2.197
 8152SOL     OW29302   2.169   3.937   3.093
 8152SOL    HW129303   2.146   3.974   3.183
 8152SOL    HW229304   2.139   3.842   3.087
 8153SOL     OW29305   1.899   5.034   3.144
 8153SOL    HW129306   1.952   4.985   3.212
 8153SOL    HW229307   1.921   5.132   3.149
 8154SOL     OW29308   2.594   4.358   2.926
 8154SOL    HW129309   2.653   4.332   2.850
 8154SOL    HW229310   2.566   4.454   2.915
 8155SOL     OW29311   3.590   4.659   3.716
 8155SOL    HW129312   3.544   4.652   3.627
 8155SOL    HW229313   3.528   4.703   3.782
 8156SOL     OW29314   2.169   3.787   2.480
 8156SOL    HW129315   2.158   3.881   2.513
 8156SOL    HW229316   2.164   3.724   2.557
 8157SOL     OW29317   3.484   4.091   2.236
 8157SOL    HW129318   3.486   4.015   2.300
 8157SOL    HW229319   3.436   4.168   2.276
 8158SOL     OW29320   2.885   4.490   2.828
 8158SOL    HW129321   2.900   4.511   2.924
 8158SOL    HW229322   2.855   4.395   2.819
 8159SOL     OW29323   2.842   5.297   3.562
 8159SOL    HW129324   2.822   5.341   3.474
 8159SOL    HW229325   2.881   5.206   3.546
 8160SOL     OW29326   3.721   5.242   3.467
 8160SOL    HW129327   3.735   5.269   3.372
 8160SOL    HW229328   3.804   5.264   3.520
 8161SOL     OW29329   2.212   4.622   3.666
 8161SOL    HW129330   2.288   4.666   3.714
 8161SOL    HW229331   2.247   4.575   3.584
 8162SOL     OW29332   3.402   3.998   1.987
 8162SOL    HW129333   3.341   3.923   2.010
 8162SOL    HW229334   3.424   4.050   2.070
 8163SOL     OW29335   3.165   4.562   1.904
 8163SOL    HW129336   3.199   4.469   1.919
 8163SOL    HW229337   3.183   4.589   1.809
 8164SOL     OW29338   2.930   5.057   2.711
 8164SOL    HW129339   2.937   4.973   2.656
 8164SOL    HW229340   2.992   5.126   2.675
 8165SOL     OW29341   2.181   4.534   2.811
 8165SOL    HW129342   2.274   4.570   2.816
 8165SOL    HW229343   2.175   4.449   2.863
 8166SOL     OW29344   2.201   4.233   2.868
 8166SOL    HW129345   2.149   4.150   2.851
 8166SOL    HW229346   2.278   4.238   2.804
 8167SOL     OW29347   3.000   4.104   3.540
 8167SOL    HW129348   2.955   4.167   3.604
 8167SOL    HW229349   3.093   4.135   3.523
 8168SOL     OW29350   3.022   3.931   3.339
 8168SOL    HW129351   3.022   3.995   3.416
 8168SOL    HW229352   3.050   3.979   3.256
 8169SOL     OW29353   1.870   5.050   2.062
 8169SOL    HW129354   1.777   5.071   2.031
 8169SOL    HW229355   1.880   4.951   2.075
 8170SOL     OW29356   1.950   5.525   2.789
 8170SOL    HW129357   1.908   5.439   2.762
 8170SOL    HW229358   2.044   5.528   2.755
 8171SOL     OW29359   2.366   5.292   2.772
 8171SOL    HW129360   2.432   5.366   2.781
 8171SOL    HW229361   2.410   5.213   2.730
 8172SOL     OW29362   2.864   4.520   3.100
 8172SOL    HW129363   2.905   4.488   3.186
 8172SOL    HW229364   2.768   4.493   3.097
 8173SOL     OW29365   1.902   4.268   2.976
 8173SOL    HW129366   1.987   4.235   2.935
 8173SOL    HW229367   1.915   4.283   3.074
 8174SOL     OW29368   2.051   4.244   3.584
 8174SOL    HW129369   2.110   4.204   3.514
 8174SOL    HW229370   1.993   4.315   3.543
 8175SOL     OW29371   3.231   4.674   3.522
 8175SOL    HW129372   3.270   4.763   3.542
 8175SOL    HW229373   3.241   4.654   3.425
 8176SOL     OW29374   3.519   4.328   3.068
 8176SOL    HW129375   3.481   4.259   3.130
 8176SOL    HW229376   3.601   4.292   3.024
 8177SOL     OW29377   2.533   4.188   3.131
 8177SOL    HW129378   2.499   4.099   3.101
 8177SOL    HW229379   2.559   4.242   3.051
 8178SOL     OW29380   2.792   5.402   3.327
 8178SOL    HW129381   2.768   5.384   3.232
 8178SOL    HW229382   2.822   5.496   3.337
 8179SOL     OW29383   2.335   4.224   2.053
 8179SOL    HW129384   2.396   4.304   2.057
 8179SOL    HW229385   2.240   4.255   2.060
 8180SOL     OW29386   2.021   4.861   3.328
 8180SOL    HW129387   2.043   4.800   3.404
 8180SOL    HW229388   2.031   4.812   3.242
 8181SOL     OW29389   3.164   4.579   2.171
 8181SOL    HW129390   3.078   4.548   2.213
 8181SOL    HW229391   3.160   4.565   2.072
 8182SOL     OW29392   3.621   5.471   3.016
 8182SOL    HW129393   3.682   5.501   2.943
 8182SOL    HW229394   3.583   5.382   2.994
 8183SOL     OW29395   3.114   5.455   2.990
 8183SOL    HW129396   3.198   5.460   2.936
 8183SOL    HW229397   3.091   5.359   3.008
 8184SOL     OW29398   1.945   4.982   2.884
 8184SOL    HW129399   1.940   4.981   2.984
 8184SOL    HW229400   1.862   4.941   2.846
 8185SOL     OW29401   2.550   5.386   3.578
 8185SOL    HW129402   2.494   5.467   3.587
 8185SOL    HW229403   2.602   5.390   3.492
 8186SOL     OW29404   3.588   3.859   2.385
 8186SOL    HW129405   3.661   3.842   2.318
 8186SOL    HW229406   3.557   3.772   2.423
 8187SOL     OW29407   3.250   5.297   2.339
 8187SOL    HW129408   3.317   5.309   2.265
 8187SOL    HW229409   3.210   5.386   2.362
 8188SOL     OW29410   1.992   5.518   3.713
 8188SOL    HW129411   1.951   5.444   3.766
 8188SOL    HW229412   2.056   5.569   3.771
 8189SOL     OW29413   3.142   4.651   2.534
 8189SOL    HW129414   3.202   4.570   2.536
 8189SOL    HW229415   3.182   4.720   2.474
 8190SOL     OW29416   2.692   4.997   3.284
 8190SOL    HW129417   2.687   5.030   3.379
 8190SOL    HW229418   2.606   5.016   3.238
 8191SOL     OW29419   2.534   5.340   2.016
 8191SOL    HW129420   2.543   5.350   1.917
 8191SOL    HW229421   2.494   5.251   2.037
 8192SOL     OW29422   3.512   5.444   3.256
 8192SOL    HW129423   3.565   5.454   3.172
 8192SOL    HW229424   3.485   5.534   3.290
 8193SOL     OW29425   3.703   3.899   2.825
 8193SOL    HW129426   3.742   3.814   2.789
 8193SOL    HW229427   3.605   3.901   2.806
 8194SOL     OW29428   2.125   4.050   2.582
 8194SOL    HW129429   2.046   4.101   2.548
 8194SOL    HW229430   2.116   4.035   2.680
 8195SOL     OW29431   3.056   5.336   1.893
 8195SOL    HW129432   3.062   5.243   1.930
 8195SOL    HW229433   2.997   5.336   1.813
 8196SOL     OW29434   2.684   4.726   3.234
 8196SOL    HW129435   2.724   4.725   3.142
 8196SOL    HW229436   2.694   4.818   3.274
 8197SOL     OW29437   2.778   4.634   2.153
 8197SOL    HW129438   2.841   4.672   2.085
 8197SOL    HW229439   2.818   4.551   2.192
 8198SOL     OW29440   3.366   5.331   1.906
 8198SOL    HW129441   3.274   5.368   1.913
 8198SOL    HW229442   3.404   5.351   1.816
 8199SOL     OW29443   2.234   5.012   3.352
 8199SOL    HW129444   2.221   5.105   3.318
 8199SOL    HW229445   2.150   4.960   3.339
 8200SOL     OW29446   3.476   5.016   3.151
 8200SOL    HW129447   3.536   5.019   3.231
 8200SOL    HW229448   3.401   5.080   3.164
 8201SOL     OW29449   2.901   4.822   2.558
 8201SOL    HW129450   2.831   4.775   2.612
 8201SOL    HW229451   2.960   4.754   2.515
 8202SOL     OW29452   2.876   3.960   2.833
 8202SOL    HW129453   2.868   3.924   2.740
 8202SOL    HW229454   2.874   3.884   2.898
 8203SOL     OW29455   2.452   5.211   2.353
 8203SOL    HW129456   2.494   5.153   2.283
 8203SOL    HW229457   2.408   5.290   2.309
 8204SOL     OW29458   3.571   4.109   3.243
 8204SOL    HW129459   3.644   4.178   3.247
 8204SOL    HW229460   3.599   4.034   3.184
 8205SOL     OW29461   2.117   5.072   2.152
 8205SOL    HW129462   2.021   5.073   2.125
 8205SOL    HW229463   2.129   5.125   2.236
 8206SOL     OW29464   1.967   4.737   3.588
 8206SOL    HW129465   1.890   4.704   3.642
 8206SOL    HW229466   2.052   4.707   3.630
 8207SOL     OW29467   2.534   3.927   3.351
 8207SOL    HW129468   2.624   3.911   3.311
 8207SOL    HW229469   2.542   3.932   3.450
 8208SOL     OW29470   1.937   4.069   1.895
 8208SOL    HW129471   1.845   4.041   1.866
 8208SOL    HW229472   1.968   4.146   1.839
 8209SOL     OW29473   3.302   4.580   3.260
 8209SOL    HW129474   3.245   4.632   3.197
 8209SOL    HW229475   3.398   4.592   3.236
 8210SOL     OW29476   1.934   3.890   2.180
 8210SOL    HW129477   1.917   3.973   2.126
 8210SOL    HW229478   2.024   3.853   2.158
 8211SOL     OW29479   3.045   5.059   1.981
 8211SOL    HW129480   2.946   5.048   1.983
 8211SOL    HW229481   3.079   5.074   2.074
 8212SOL     OW29482   2.475   4.566   3.293
 8212SOL    HW129483   2.531   4.647   3.276
 8212SOL    HW229484   2.534   4.486   3.296
 8213SOL     OW29485   3.355   5.491   2.821
 8213SOL    HW129486   3.388   5.555   2.752
 8213SOL    HW229487   3.421   5.485   2.896
 8214SOL     OW29488   2.578   4.289   3.570
 8214SOL    HW129489   2.597   4.354   3.644
 8214SOL    HW229490   2.638   4.209   3.579
 8215SOL     OW29491   3.312   4.944   3.495
 8215SOL    HW129492   3.303   4.934   3.594
 8215SOL    HW229493   3.408   4.937   3.469
 8216SOL     OW29494   2.252   5.465   3.422
 8216SOL    HW129495   2.161   5.506   3.420
 8216SOL    HW229496   2.245   5.371   3.454
 8217SOL     OW29497   3.536   4.607   3.116
 8217SOL    HW129498   3.509   4.518   3.079
 8217SOL    HW229499   3.537   4.675   3.043
 8218SOL     OW29500   3.087   4.049   2.311
 8218SOL    HW129501   3.152   3.975   2.300
 8218SOL    HW229502   3.107   4.099   2.395
 8219SOL     OW29503   2.456   4.469   2.514
 8219SOL    HW129504   2.506   4.554   2.495
 8219SOL    HW229505   2.368   4.471   2.466
 8220SOL     OW29506   3.639   4.066   3.504
 8220SOL    HW129507   3.622   4.097   3.410
 8220SOL    HW229508   3.555   4.029   3.542
 8221SOL     OW29509   3.592   4.658   3.379
 8221SOL    HW129510   3.630   4.749   3.394
 8221SOL    HW229511   3.584   4.641   3.280
 8222SOL     OW29512   2.721   5.098   1.878
 8222SOL    HW129513   2.675   5.113   1.966
 8222SOL    HW229514   2.765   5.183   1.848
 8223SOL     OW29515   2.523   5.514   2.815
 8223SOL    HW129516   2.477   5.602   2.802
 8223SOL    HW229517   2.622   5.526   2.808
 8224SOL     OW29518   2.721   4.680   2.723
 8224SOL    HW129519   2.775   4.611   2.771
 8224SOL    HW229520   2.689   4.749   2.789
 8225SOL     OW29521   2.945   4.708   1.949
 8225SOL    HW129522   2.922   4.761   1.867
 8225SOL    HW229523   3.026   4.652   1.930
 8226SOL     OW29524   3.723   5.293   2.713
 8226SOL    HW129525   3.652   5.281   2.643
 8226SOL    HW229526   3.724   5.214   2.773
 8227SOL     OW29527   1.941   4.964   2.515
 8227SOL    HW129528   1.940   4.917   2.603
 8227SOL    HW229529   2.023   4.936   2.464
 8228SOL     OW29530   2.534   5.115   3.486
 8228SOL    HW129531   2.456   5.065   3.524
 8228SOL    HW229532   2.531   5.210   3.517
 8229SOL     OW29533   3.686   3.916   3.089
 8229SOL    HW129534   3.682   3.826   3.133
 8229SOL    HW229535   3.689   3.905   2.990
 8230SOL     OW29536   2.290   4.148   2.382
 8230SOL    HW129537   2.320   4.076   2.320
 8230SOL    HW229538   2.251   4.108   2.465
 8231SOL     OW29539   3.567   5.211   2.966
 8231SOL    HW129540   3.474   5.186   2.939
 8231SOL    HW229541   3.593   5.161   3.048
 8232SOL     OW29542   2.179   4.271   3.142
 8232SOL    HW129543   2.217   4.212   3.214
 8232SOL    HW229544   2.219   4.245   3.054
 8233SOL     OW29545   2.674   5.310   2.549
 8233SOL    HW129546   2.706   5.320   2.455
 8233SOL    HW229547   2.595   5.248   2.551
 8234SOL     OW29548   3.286   3.938   2.974
 8234SOL    HW129549   3.338   3.873   3.029
 8234SOL    HW229550   3.237   4.001   3.035
 8235SOL     OW29551   2.863   3.758   3.016
 8235SOL    HW129552   2.800   3.686   2.985
 8235SOL    HW229553   2.956   3.722   3.016
 8236SOL     OW29554   2.632   5.054   2.163
 8236SOL    HW129555   2.586   4.967   2.180
 8236SOL    HW229556   2.723   5.051   2.204
 8237SOL     OW29557   2.480   5.291   3.146
 8237SOL    HW129558   2.475   5.373   3.203
 8237SOL    HW229559   2.569   5.288   3.101
 8238SOL     OW29560   3.214   3.776   2.030
 8238SOL    HW129561   3.249   3.735   1.946
 8238SOL    HW229562   3.124   3.738   2.050
 8239SOL     OW29563   3.162   4.177   2.553
 8239SOL    HW129564   3.103   4.257   2.557
 8239SOL    HW229565   3.177   4.142   2.646
 8240SOL     OW29566   3.455   3.945   2.744
 8240SOL    HW129567   3.371   3.944   2.798
 8240SOL    HW229568   3.457   4.028   2.688
 8241SOL     OW29569   1.901   4.801   2.162
 8241SOL    HW129570   2.000   4.790   2.153
 8241SOL    HW229571   1.861   4.715   2.194
 8242SOL     OW29572   2.737   5.370   2.199
 8242SOL    HW129573   2.660   5.335   2.145
 8242SOL    HW229574   2.705   5.441   2.261
 8243SOL     OW29575   2.092   4.352   3.837
 8243SOL    HW129576   1.999   4.350   3.874
 8243SOL    HW229577   2.093   4.313   3.745
 8244SOL     OW29578   1.881   4.092   4.371
 8244SOL    HW129579   1.799   4.135   4.410
 8244SOL    HW229580   1.853   4.019   4.308
 8245SOL     OW29581   2.431   4.999   4.889
 8245SOL    HW129582   2.338   4.992   4.852
 8245SOL    HW229583   2.442   5.088   4.933
 8246SOL     OW29584   2.997   4.427   4.441
 8246SOL    HW129585   3.054   4.505   4.416
 8246SOL    HW229586   2.937   4.453   4.517
 8247SOL     OW29587   3.617   4.331   3.955
 8247SOL    HW129588   3.605   4.318   3.856
 8247SOL    HW229589   3.587   4.250   4.004
 8248SOL     OW29590   2.630   4.868   4.747
 8248SOL    HW129591   2.552   4.885   4.807
 8248SOL    HW229592   2.664   4.955   4.711
 8249SOL     OW29593   2.712   4.522   5.547
 8249SOL    HW129594   2.708   4.598   5.612
 8249SOL    HW229595   2.734   4.558   5.456
 8250SOL     OW29596   2.547   4.736   4.389
 8250SOL    HW129597   2.616   4.720   4.459
 8250SOL    HW229598   2.474   4.793   4.427
 8251SOL     OW29599   2.548   4.885   5.527
 8251SOL    HW129600   2.608   4.964   5.541
 8251SOL    HW229601   2.462   4.916   5.486
 8252SOL     OW29602   2.197   5.159   4.785
 8252SOL    HW129603   2.119   5.128   4.732
 8252SOL    HW229604   2.255   5.217   4.728
 8253SOL     OW29605   3.322   5.229   5.063
 8253SOL    HW129606   3.346   5.323   5.089
 8253SOL    HW229607   3.306   5.175   5.145
 8254SOL     OW29608   2.300   4.116   5.223
 8254SOL    HW129609   2.382   4.060   5.232
 8254SOL    HW229610   2.219   4.058   5.227
 8255SOL     OW29611   3.465   4.171   4.461
 8255SOL    HW129612   3.391   4.217   4.411
 8255SOL    HW229613   3.516   4.239   4.514
 8256SOL     OW29614   2.989   5.065   5.414
 8256SOL    HW129615   3.036   5.065   5.502
 8256SOL    HW229616   2.941   4.978   5.403
 8257SOL     OW29617   2.102   4.815   4.610
 8257SOL    HW129618   2.116   4.731   4.662
 8257SOL    HW229619   2.047   4.879   4.665
 8258SOL     OW29620   2.482   5.510   5.163
 8258SOL    HW129621   2.390   5.493   5.198
 8258SOL    HW229622   2.510   5.602   5.189
 8259SOL     OW29623   2.468   4.688   3.847
 8259SOL    HW129624   2.475   4.772   3.793
 8259SOL    HW229625   2.514   4.701   3.935
 8260SOL     OW29626   3.456   3.838   5.204
 8260SOL    HW129627   3.438   3.905   5.132
 8260SOL    HW229628   3.453   3.884   5.293
 8261SOL     OW29629   1.984   4.367   4.287
 8261SOL    HW129630   1.939   4.279   4.304
 8261SOL    HW229631   1.983   4.421   4.371
 8262SOL     OW29632   3.704   5.491   4.083
 8262SOL    HW129633   3.758   5.462   4.163
 8262SOL    HW229634   3.734   5.581   4.054
 8263SOL     OW29635   3.551   4.646   4.336
 8263SOL    HW129636   3.646   4.617   4.344
 8263SOL    HW229637   3.543   4.711   4.261
 8264SOL     OW29638   3.503   4.832   4.156
 8264SOL    HW129639   3.589   4.834   4.104
 8264SOL    HW229640   3.517   4.879   4.244
 8265SOL     OW29641   2.475   5.089   4.450
 8265SOL    HW129642   2.426   5.002   4.459
 8265SOL    HW229643   2.452   5.132   4.363
 8266SOL     OW29644   3.155   4.952   5.147
 8266SOL    HW129645   3.192   4.879   5.089
 8266SOL    HW229646   3.207   4.957   5.232
 8267SOL     OW29647   2.671   3.728   4.226
 8267SOL    HW129648   2.711   3.819   4.217
 8267SOL    HW229649   2.571   3.736   4.232
 8268SOL     OW29650   2.059   4.700   4.988
 8268SOL    HW129651   2.148   4.655   4.974
 8268SOL    HW229652   1.986   4.635   4.969
 8269SOL     OW29653   3.387   4.723   3.914
 8269SOL    HW129654   3.324   4.647   3.927
 8269SOL    HW229655   3.435   4.741   4.000
 8270SOL     OW29656   3.049   5.516   5.340
 8270SOL    HW129657   3.073   5.576   5.264
 8270SOL    HW229658   3.056   5.421   5.310
 8271SOL     OW29659   2.179   3.975   5.525
 8271SOL    HW129660   2.250   4.046   5.531
 8271SOL    HW229661   2.091   4.014   5.553
 8272SOL     OW29662   3.328   5.141   4.677
 8272SOL    HW129663   3.269   5.147   4.757
 8272SOL    HW229664   3.313   5.053   4.631
 8273SOL     OW29665   3.529   5.438   4.296
 8273SOL    HW129666   3.488   5.415   4.208
 8273SOL    HW229667   3.511   5.364   4.361
 8274SOL     OW29668   2.460   4.453   3.994
 8274SOL    HW129669   2.484   4.522   3.926
 8274SOL    HW229670   2.382   4.486   4.048
 8275SOL     OW29671   3.143   4.069   4.668
 8275SOL    HW129672   3.057   4.019   4.655
 8275SOL    HW229673   3.205   4.015   4.724
 8276SOL     OW29674   3.438   5.386   4.031
 8276SOL    HW129675   3.527   5.432   4.034
 8276SOL    HW229676   3.417   5.362   3.936
 8277SOL     OW29677   2.669   4.329   5.189
 8277SOL    HW129678   2.622   4.326   5.278
 8277SOL    HW229679   2.618   4.274   5.123
 8278SOL     OW29680   3.256   4.193   5.398
 8278SOL    HW129681   3.236   4.236   5.486
 8278SOL    HW229682   3.334   4.131   5.407
 8279SOL     OW29683   2.835   4.614   5.296
 8279SOL    HW129684   2.881   4.530   5.267
 8279SOL    HW229685   2.779   4.648   5.221
 8280SOL     OW29686   2.853   4.134   4.966
 8280SOL    HW129687   2.776   4.168   5.020
 8280SOL    HW229688   2.819   4.083   4.887
 8281SOL     OW29689   2.903   4.425   4.153
 8281SOL    HW129690   2.929   4.421   4.249
 8281SOL    HW229691   2.818   4.374   4.139
 8282SOL     OW29692   1.938   4.535   4.513
 8282SOL    HW129693   2.037   4.523   4.522
 8282SOL    HW229694   1.914   4.630   4.534
 8283SOL     OW29695   1.992   5.545   5.295
 8283SOL    HW129696   1.982   5.530   5.394
 8283SOL    HW229697   1.906   5.581   5.259
 8284SOL     OW29698   2.727   4.072   3.919
 8284SOL    HW129699   2.786   4.135   3.870
 8284SOL    HW229700   2.746   3.978   3.890
 8285SOL     OW29701   3.581   4.309   5.555
 8285SOL    HW129702   3.555   4.398   5.519
 8285SOL    HW229703   3.579   4.241   5.482
 8286SOL     OW29704   3.224   4.868   4.269
 8286SOL    HW129705   3.307   4.839   4.221
 8286SOL    HW229706   3.175   4.935   4.213
 8287SOL     OW29707   2.412   3.920   4.609
 8287SOL    HW129708   2.407   3.915   4.709
 8287SOL    HW229709   2.414   4.016   4.580
 8288SOL     OW29710   2.870   5.180   4.201
 8288SOL    HW129711   2.824   5.252   4.149
 8288SOL    HW229712   2.866   5.200   4.299
 8289SOL     OW29713   2.213   5.525   4.577
 8289SOL    HW129714   2.263   5.439   4.583
 8289SOL    HW229715   2.278   5.602   4.574
 8290SOL     OW29716   3.657   4.790   4.597
 8290SOL    HW129717   3.595   4.775   4.521
 8290SOL    HW229718   3.605   4.801   4.682
 8291SOL     OW29719   3.089   5.274   5.230
 8291SOL    HW129720   3.095   5.197   5.294
 8291SOL    HW229721   3.037   5.248   5.150
 8292SOL     OW29722   2.183   4.667   3.966
 8292SOL    HW129723   2.265   4.706   3.924
 8292SOL    HW229724   2.156   4.585   3.917
 8293SOL     OW29725   3.320   4.459   4.452
 8293SOL    HW129726   3.315   4.394   4.527
 8293SOL    HW229727   3.400   4.518   4.465
 8294SOL     OW29728   2.323   4.990   5.451
 8294SOL    HW129729   2.273   4.991   5.365
 8294SOL    HW229730   2.260   4.972   5.527
 8295SOL     OW29731   2.973   5.500   3.961
 8295SOL    HW129732   2.913   5.438   4.011
 8295SOL    HW229733   3.004   5.456   3.876
 8296SOL     OW29734   2.064   4.009   5.222
 8296SOL    HW129735   1.984   4.069   5.209
 8296SOL    HW229736   2.054   3.960   5.308
 8297SOL     OW29737   3.494   5.101   3.805
 8297SOL    HW129738   3.462   5.195   3.795
 8297SOL    HW229739   3.418   5.038   3.793
 8298SOL     OW29740   2.326   5.467   4.047
 8298SOL    HW129741   2.359   5.506   4.133
 8298SOL    HW229742   2.402   5.460   3.982
 8299SOL     OW29743   3.262   3.831   4.150
 8299SOL    HW129744   3.238   3.794   4.060
 8299SOL    HW229745   3.361   3.847   4.154
 8300SOL     OW29746   2.111   5.509   4.965
 8300SOL    HW129747   2.168   5.444   5.015
 8300SOL    HW229748   2.095   5.476   4.872
 8301SOL     OW29749   2.802   5.422   4.628
 8301SOL    HW129750   2.882   5.365   4.649
 8301SOL    HW229751   2.753   5.382   4.551
 8302SOL     OW29752   2.244   4.424   4.204
 8302SOL    HW129753   2.289   4.334   4.201
 8302SOL    HW229754   2.150   4.413   4.237
 8303SOL     OW29755   3.409   3.946   5.453
 8303SOL    HW129756   3.404   3.983   5.545
 8303SOL    HW229757   3.337   3.877   5.441
 8304SOL     OW29758   2.476   3.846   3.841
 8304SOL    HW129759   2.574   3.824   3.848
 8304SOL    HW229760   2.445   3.829   3.748
 8305SOL     OW29761   2.750   5.238   4.919
 8305SOL    HW129762   2.727   5.213   4.825
 8305SOL    HW229763   2.811   5.169   4.958
 8306SOL     OW29764   3.213   4.314   5.157
 8306SOL    HW129765   3.241   4.271   5.242
 8306SOL    HW229766   3.238   4.410   5.158
 8307SOL     OW29767   2.665   5.126   4.648
 8307SOL    HW129768   2.755   5.140   4.606
 8307SOL    HW229769   2.594   5.128   4.577
 8308SOL     OW29770   2.784   4.227   4.623
 8308SOL    HW129771   2.759   4.218   4.527
 8308SOL    HW229772   2.832   4.145   4.654
 8309SOL     OW29773   2.401   3.788   4.236
 8309SOL    HW129774   2.320   3.789   4.294
 8309SOL    HW229775   2.404   3.871   4.181
 8310SOL     OW29776   3.296   4.912   3.765
 8310SOL    HW129777   3.328   4.836   3.822
 8310SOL    HW229778   3.204   4.939   3.795
 8311SOL     OW29779   2.159   3.759   3.895
 8311SOL    HW129780   2.208   3.843   3.874
 8311SOL    HW229781   2.221   3.694   3.940
 8312SOL     OW29782   2.797   3.960   4.204
 8312SOL    HW129783   2.749   4.001   4.126
 8312SOL    HW229784   2.896   3.958   4.185
 8313SOL     OW29785   2.938   4.407   5.188
 8313SOL    HW129786   2.858   4.346   5.191
 8313SOL    HW229787   3.019   4.354   5.164
 8314SOL     OW29788   3.089   5.294   4.517
 8314SOL    HW129789   3.110   5.368   4.452
 8314SOL    HW229790   3.157   5.294   4.590
 8315SOL     OW29791   2.321   4.876   4.465
 8315SOL    HW129792   2.250   4.849   4.530
 8315SOL    HW229793   2.295   4.848   4.372
 8316SOL     OW29794   3.133   5.521   4.315
 8316SOL    HW129795   3.177   5.585   4.251
 8316SOL    HW229796   3.083   5.573   4.385
 8317SOL     OW29797   2.894   4.273   3.740
 8317SOL    HW129798   2.853   4.355   3.701
 8317SOL    HW229799   2.958   4.299   3.813
 8318SOL     OW29800   1.940   4.280   5.110
 8318SOL    HW129801   2.032   4.279   5.069
 8318SOL    HW229802   1.934   4.354   5.177
 8319SOL     OW29803   2.423   3.946   4.871
 8319SOL    HW129804   2.461   3.862   4.908
 8319SOL    HW229805   2.335   3.965   4.915
 8320SOL     OW29806   2.728   4.178   4.366
 8320SOL    HW129807   2.696   4.250   4.304
 8320SOL    HW229808   2.752   4.097   4.313
 8321SOL     OW29809   2.879   3.763   4.477
 8321SOL    HW129810   2.807   3.768   4.408
 8321SOL    HW229811   2.855   3.694   4.546
 8322SOL     OW29812   3.291   4.897   4.591
 8322SOL    HW129813   3.236   4.813   4.584
 8322SOL    HW229814   3.317   4.926   4.499
 8323SOL     OW29815   3.328   4.314   4.716
 8323SOL    HW129816   3.298   4.219   4.723
 8323SOL    HW229817   3.401   4.330   4.782
 8324SOL     OW29818   3.719   4.557   4.101
 8324SOL    HW129819   3.761   4.493   4.165
 8324SOL    HW229820   3.681   4.506   4.023
 8325SOL     OW29821   3.526   5.004   4.381
 8325SOL    HW129822   3.625   5.012   4.395
 8325SOL    HW229823   3.481   5.088   4.412
 8326SOL     OW29824   3.252   4.299   3.802
 8326SOL    HW129825   3.198   4.278   3.883
 8326SOL    HW229826   3.343   4.258   3.811
 8327SOL     OW29827   2.389   3.980   4.052
 8327SOL    HW129828   2.416   3.921   3.977
 8327SOL    HW229829   2.389   4.075   4.021
 8328SOL     OW29830   3.616   4.947   5.312
 8328SOL    HW129831   3.707   4.908   5.299
 8328SOL    HW229832   3.624   5.043   5.336
 8329SOL     OW29833   2.926   5.071   5.064
 8329SOL    HW129834   2.846   5.048   5.119
 8329SOL    HW229835   3.009   5.045   5.113
 8330SOL     OW29836   3.454   5.353   5.349
 8330SOL    HW129837   3.481   5.387   5.259
 8330SOL    HW229838   3.533   5.315   5.395
 8331SOL     OW29839   2.973   4.919   4.824
 8331SOL    HW129840   2.933   4.963   4.905
 8331SOL    HW229841   2.932   4.956   4.741
 8332SOL     OW29842   3.500   4.823   4.803
 8332SOL    HW129843   3.505   4.904   4.862
 8332SOL    HW229844   3.414   4.825   4.752
 8333SOL     OW29845   2.777   3.813   5.126
 8333SOL    HW129846   2.802   3.793   5.031
 8333SOL    HW229847   2.849   3.869   5.168
 8334SOL     OW29848   2.842   4.840   5.443
 8334SOL    HW129849   2.743   4.846   5.453
 8334SOL    HW229850   2.865   4.760   5.387
 8335SOL     OW29851   2.567   4.774   4.092
 8335SOL    HW129852   2.553   4.781   4.191
 8335SOL    HW229853   2.651   4.723   4.074
 8336SOL     OW29854   2.272   4.537   4.975
 8336SOL    HW129855   2.358   4.549   5.025
 8336SOL    HW229856   2.230   4.450   5.002
 8337SOL     OW29857   3.136   4.110   4.986
 8337SOL    HW129858   3.157   4.184   5.050
 8337SOL    HW229859   3.047   4.127   4.943
 8338SOL     OW29860   1.926   5.288   5.055
 8338SOL    HW129861   1.880   5.370   5.021
 8338SOL    HW229862   2.024   5.307   5.064
 8339SOL     OW29863   2.229   4.824   4.225
 8339SOL    HW129864   2.222   4.907   4.169
 8339SOL    HW229865   2.233   4.744   4.165
 8340SOL     OW29866   2.428   4.261   4.589
 8340SOL    HW129867   2.440   4.327   4.515
 8340SOL    HW229868   2.474   4.295   4.672
 8341SOL     OW29869   3.114   5.072   4.112
 8341SOL    HW129870   3.164   5.149   4.152
 8341SOL    HW229871   3.019   5.074   4.144
 8342SOL     OW29872   3.134   5.169   4.866
 8342SOL    HW129873   3.181   5.182   4.953
 8342SOL    HW229874   3.068   5.095   4.875
 8343SOL     OW29875   3.444   4.363   4.196
 8343SOL    HW129876   3.413   4.424   4.269
 8343SOL    HW229877   3.494   4.415   4.127
 8344SOL     OW29878   2.216   5.234   5.053
 8344SOL    HW129879   2.195   5.190   4.966
 8344SOL    HW229880   2.313   5.260   5.056
 8345SOL     OW29881   2.264   4.475   5.322
 8345SOL    HW129882   2.332   4.530   5.275
 8345SOL    HW229883   2.304   4.387   5.349
 8346SOL     OW29884   3.449   4.503   5.394
 8346SOL    HW129885   3.357   4.541   5.389
 8346SOL    HW229886   3.509   4.550   5.329
 8347SOL     OW29887   2.875   3.829   5.494
 8347SOL    HW129888   2.881   3.914   5.442
 8347SOL    HW229889   2.907   3.753   5.437
 8348SOL     OW29890   2.366   3.774   5.464
 8348SOL    HW129891   2.324   3.717   5.394
 8348SOL    HW229892   2.300   3.843   5.496
 8349SOL     OW29893   2.435   4.594   4.753
 8349SOL    HW129894   2.479   4.683   4.744
 8349SOL    HW229895   2.372   4.594   4.830
 8350SOL     OW29896   3.222   4.586   4.769
 8350SOL    HW129897   3.147   4.586   4.703
 8350SOL    HW229898   3.259   4.494   4.778
 8351SOL     OW29899   3.071   4.249   3.999
 8351SOL    HW129900   3.084   4.165   4.053
 8351SOL    HW229901   3.042   4.323   4.059
 8352SOL     OW29902   2.169   3.937   4.955
 8352SOL    HW129903   2.146   3.974   5.045
 8352SOL    HW229904   2.139   3.842   4.949
 8353SOL     OW29905   1.899   5.034   5.006
 8353SOL    HW129906   1.952   4.985   5.074
 8353SOL    HW229907   1.921   5.132   5.011
 8354SOL     OW29908   2.594   4.358   4.788
 8354SOL    HW129909   2.653   4.332   4.712
 8354SOL    HW229910   2.566   4.454   4.777
 8355SOL     OW29911   3.590   4.659   5.578
 8355SOL    HW129912   3.544   4.652   5.489
 8355SOL    HW229913   3.528   4.703   5.644
 8356SOL     OW29914   2.169   3.787   4.342
 8356SOL    HW129915   2.158   3.881   4.375
 8356SOL    HW229916   2.164   3.724   4.419
 8357SOL     OW29917   3.484   4.091   4.098
 8357SOL    HW129918   3.486   4.015   4.162
 8357SOL    HW229919   3.436   4.168   4.138
 8358SOL     OW29920   2.885   4.490   4.690
 8358SOL    HW129921   2.900   4.511   4.786
 8358SOL    HW229922   2.855   4.395   4.681
 8359SOL     OW29923   2.842   5.297   5.424
 8359SOL    HW129924   2.822   5.341   5.336
 8359SOL    HW229925   2.881   5.206   5.408
 8360SOL     OW29926   3.721   5.242   5.329
 8360SOL    HW129927   3.735   5.269   5.234
 8360SOL    HW229928   3.804   5.264   5.382
 8361SOL     OW29929   2.212   4.622   5.528
 8361SOL    HW129930   2.288   4.666   5.576
 8361SOL    HW229931   2.247   4.575   5.446
 8362SOL     OW29932   3.402   3.998   3.849
 8362SOL    HW129933   3.341   3.923   3.872
 8362SOL    HW229934   3.424   4.050   3.932
 8363SOL     OW29935   3.165   4.562   3.766
 8363SOL    HW129936   3.199   4.469   3.781
 8363SOL    HW229937   3.183   4.589   3.671
 8364SOL     OW29938   2.930   5.057   4.573
 8364SOL    HW129939   2.937   4.973   4.518
 8364SOL    HW229940   2.992   5.126   4.537
 8365SOL     OW29941   2.181   4.534   4.673
 8365SOL    HW129942   2.274   4.570   4.678
 8365SOL    HW229943   2.175   4.449   4.725
 8366SOL     OW29944   2.201   4.233   4.730
 8366SOL    HW129945   2.149   4.150   4.713
 8366SOL    HW229946   2.278   4.238   4.666
 8367SOL     OW29947   3.000   4.104   5.402
 8367SOL    HW129948   2.955   4.167   5.466
 8367SOL    HW229949   3.093   4.135   5.385
 8368SOL     OW29950   3.022   3.931   5.201
 8368SOL    HW129951   3.022   3.995   5.278
 8368SOL    HW229952   3.050   3.979   5.118
 8369SOL     OW29953   1.870   5.050   3.924
 8369SOL    HW129954   1.777   5.071   3.893
 8369SOL    HW229955   1.880   4.951   3.937
 8370SOL     OW29956   1.950   5.525   4.651
 8370SOL    HW129957   1.908   5.439   4.624
 8370SOL    HW229958   2.044   5.528   4.617
 8371SOL     OW29959   2.366   5.292   4.634
 8371SOL    HW129960   2.432   5.366   4.643
 8371SOL    HW229961   2.410   5.213   4.592
 8372SOL     OW29962   2.864   4.520   4.962
 8372SOL    HW129963   2.905   4.488   5.048
 8372SOL    HW229964   2.768   4.493   4.959
 8373SOL     OW29965   1.902   4.268   4.838
 8373SOL    HW129966   1.987   4.235   4.797
 8373SOL    HW229967   1.915   4.283   4.936
 8374SOL     OW29968   2.051   4.244   5.446
 8374SOL    HW129969   2.110   4.204   5.376
 8374SOL    HW229970   1.993   4.315   5.405
 8375SOL     OW29971   3.231   4.674   5.384
 8375SOL    HW129972   3.270   4.763   5.404
 8375SOL    HW229973   3.241   4.654   5.287
 8376SOL     OW29974   2.677   4.296   4.049
 8376SOL    HW129975   2.684   4.207   4.003
 8376SOL    HW229976   2.583   4.330   4.041
 8377SOL     OW29977   3.519   4.328   4.930
 8377SOL    HW129978   3.481   4.259   4.992
 8377SOL    HW229979   3.601   4.292   4.886
 8378SOL     OW29980   2.114   5.288   5.468
 8378SOL    HW129981   2.084   5.345   5.544
 8378SOL    HW229982   2.107   5.191   5.494
 8379SOL     OW29983   2.533   4.188   4.993
 8379SOL    HW129984   2.499   4.099   4.963
 8379SOL    HW229985   2.559   4.242   4.913
 8380SOL     OW29986   2.792   5.402   5.189
 8380SOL    HW129987   2.768   5.384   5.094
 8380SOL    HW229988   2.822   5.496   5.199
 8381SOL     OW29989   2.335   4.224   3.915
 8381SOL    HW129990   2.396   4.304   3.919
 8381SOL    HW229991   2.240   4.255   3.922
 8382SOL     OW29992   3.209   4.783   4.958
 8382SOL    HW129993   3.233   4.720   4.884
 8382SOL    HW229994   3.119   4.823   4.940
 8383SOL     OW29995   3.164   4.579   4.033
 8383SOL    HW129996   3.078   4.548   4.075
 8383SOL    HW229997   3.160   4.565   3.934
 8384SOL     OW29998   3.621   5.471   4.878
 8384SOL    HW129999   3.682   5.501   4.805
 8384SOL    HW230000   3.583   5.382   4.856
 8385SOL     OW30001   3.114   5.455   4.852
 8385SOL    HW130002   3.198   5.460   4.798
 8385SOL    HW230003   3.091   5.359   4.870
 8386SOL     OW30004   1.945   4.982   4.746
 8386SOL    HW130005   1.940   4.981   4.846
 8386SOL    HW230006   1.862   4.941   4.708
 8387SOL     OW30007   2.550   5.386   5.440
 8387SOL    HW130008   2.494   5.467   5.449
 8387SOL    HW230009   2.602   5.390   5.354
 8388SOL     OW30010   3.588   3.859   4.247
 8388SOL    HW130011   3.661   3.842   4.180
 8388SOL    HW230012   3.557   3.772   4.285
 8389SOL     OW30013   3.250   5.297   4.201
 8389SOL    HW130014   3.317   5.309   4.127
 8389SOL    HW230015   3.210   5.386   4.224
 8390SOL     OW30016   1.992   5.518   5.575
 8390SOL    HW130017   1.951   5.444   5.628
 8390SOL    HW230018   2.056   5.569   5.633
 8391SOL     OW30019   3.142   4.651   4.396
 8391SOL    HW130020   3.202   4.570   4.398
 8391SOL    HW230021   3.182   4.720   4.336
 8392SOL     OW30022   2.692   4.997   5.146
 8392SOL    HW130023   2.687   5.030   5.241
 8392SOL    HW230024   2.606   5.016   5.100
 8393SOL     OW30025   2.534   5.340   3.878
 8393SOL    HW130026   2.543   5.350   3.779
 8393SOL    HW230027   2.494   5.251   3.899
 8394SOL     OW30028   3.512   5.444   5.118
 8394SOL    HW130029   3.565   5.454   5.034
 8394SOL    HW230030   3.485   5.534   5.152
 8395SOL     OW30031   3.703   3.899   4.687
 8395SOL    HW130032   3.742   3.814   4.651
 8395SOL    HW230033   3.605   3.901   4.668
 8396SOL     OW30034   2.125   4.050   4.444
 8396SOL    HW130035   2.046   4.101   4.410
 8396SOL    HW230036   2.116   4.035   4.542
 8397SOL     OW30037   3.056   5.336   3.755
 8397SOL    HW130038   3.062   5.243   3.792
 8397SOL    HW230039   2.997   5.336   3.675
 8398SOL     OW30040   2.684   4.726   5.096
 8398SOL    HW130041   2.724   4.725   5.004
 8398SOL    HW230042   2.694   4.818   5.136
 8399SOL     OW30043   2.778   4.634   4.015
 8399SOL    HW130044   2.841   4.672   3.947
 8399SOL    HW230045   2.818   4.551   4.054
 8400SOL     OW30046   3.366   5.331   3.768
 8400SOL    HW130047   3.274   5.368   3.775
 8400SOL    HW230048   3.404   5.351   3.678
 8401SOL     OW30049   2.234   5.012   5.214
 8401SOL    HW130050   2.221   5.105   5.180
 8401SOL    HW230051   2.150   4.960   5.201
 8402SOL     OW30052   3.476   5.016   5.013
 8402SOL    HW130053   3.536   5.019   5.093
 8402SOL    HW230054   3.401   5.080   5.026
 8403SOL     OW30055   2.901   4.822   4.420
 8403SOL    HW130056   2.831   4.775   4.474
 8403SOL    HW230057   2.960   4.754   4.377
 8404SOL     OW30058   2.876   3.960   4.695
 8404SOL    HW130059   2.868   3.924   4.602
 8404SOL    HW230060   2.874   3.884   4.760
 8405SOL     OW30061   2.452   5.211   4.215
 8405SOL    HW130062   2.494   5.153   4.145
 8405SOL    HW230063   2.408   5.290   4.171
 8406SOL     OW30064   3.571   4.109   5.105
 8406SOL    HW130065   3.644   4.178   5.109
 8406SOL    HW230066   3.599   4.034   5.046
 8407SOL     OW30067   2.534   3.927   5.213
 8407SOL    HW130068   2.624   3.911   5.173
 8407SOL    HW230069   2.542   3.932   5.312
 8408SOL     OW30070   1.937   4.069   3.757
 8408SOL    HW130071   1.845   4.041   3.728
 8408SOL    HW230072   1.968   4.146   3.701
 8409SOL     OW30073   3.302   4.580   5.122
 8409SOL    HW130074   3.245   4.632   5.059
 8409SOL    HW230075   3.398   4.592   5.098
 8410SOL     OW30076   3.045   5.059   3.843
 8410SOL    HW130077   2.946   5.048   3.845
 8410SOL    HW230078   3.079   5.074   3.936
 8411SOL     OW30079   2.475   4.566   5.155
 8411SOL    HW130080   2.531   4.647   5.138
 8411SOL    HW230081   2.534   4.486   5.158
 8412SOL     OW30082   3.355   5.491   4.683
 8412SOL    HW130083   3.388   5.555   4.614
 8412SOL    HW230084   3.421   5.485   4.758
 8413SOL     OW30085   2.578   4.289   5.432
 8413SOL    HW130086   2.597   4.354   5.506
 8413SOL    HW230087   2.638   4.209   5.441
 8414SOL     OW30088   3.312   4.944   5.357
 8414SOL    HW130089   3.303   4.934   5.456
 8414SOL    HW230090   3.408   4.937   5.331
 8415SOL     OW30091   2.252   5.465   5.284
 8415SOL    HW130092   2.161   5.506   5.282
 8415SOL    HW230093   2.245   5.371   5.316
 8416SOL     OW30094   3.536   4.607   4.978
 8416SOL    HW130095   3.509   4.518   4.941
 8416SOL    HW230096   3.537   4.675   4.905
 8417SOL     OW30097   3.087   4.049   4.173
 8417SOL    HW130098   3.152   3.975   4.162
 8417SOL    HW230099   3.107   4.099   4.257
 8418SOL     OW30100   2.456   4.469   4.376
 8418SOL    HW130101   2.506   4.554   4.357
 8418SOL    HW230102   2.368   4.471   4.328
 8419SOL     OW30103   3.639   4.066   5.366
 8419SOL    HW130104   3.622   4.097   5.272
 8419SOL    HW230105   3.555   4.029   5.404
 8420SOL     OW30106   3.592   4.658   5.241
 8420SOL    HW130107   3.630   4.749   5.256
 8420SOL    HW230108   3.584   4.641   5.142
 8421SOL     OW30109   2.721   5.098   3.740
 8421SOL    HW130110   2.675   5.113   3.828
 8421SOL    HW230111   2.765   5.183   3.710
 8422SOL     OW30112   2.523   5.514   4.677
 8422SOL    HW130113   2.477   5.602   4.664
 8422SOL    HW230114   2.622   5.526   4.670
 8423SOL     OW30115   2.721   4.680   4.585
 8423SOL    HW130116   2.775   4.611   4.633
 8423SOL    HW230117   2.689   4.749   4.651
 8424SOL     OW30118   2.945   4.708   3.811
 8424SOL    HW130119   2.922   4.761   3.729
 8424SOL    HW230120   3.026   4.652   3.792
 8425SOL     OW30121   3.723   5.293   4.575
 8425SOL    HW130122   3.652   5.281   4.505
 8425SOL    HW230123   3.724   5.214   4.635
 8426SOL     OW30124   2.083   5.038   5.568
 8426SOL    HW130125   2.018   4.965   5.547
 8426SOL    HW230126   2.087   5.052   5.666
 8427SOL     OW30127   1.941   4.964   4.377
 8427SOL    HW130128   1.940   4.917   4.465
 8427SOL    HW230129   2.023   4.936   4.326
 8428SOL     OW30130   2.534   5.115   5.348
 8428SOL    HW130131   2.456   5.065   5.386
 8428SOL    HW230132   2.531   5.210   5.379
 8429SOL     OW30133   3.686   3.916   4.951
 8429SOL    HW130134   3.682   3.826   4.995
 8429SOL    HW230135   3.689   3.905   4.852
 8430SOL     OW30136   2.290   4.148   4.244
 8430SOL    HW130137   2.320   4.076   4.182
 8430SOL    HW230138   2.251   4.108   4.327
 8431SOL     OW30139   3.567   5.211   4.828
 8431SOL    HW130140   3.474   5.186   4.801
 8431SOL    HW230141   3.593   5.161   4.910
 8432SOL     OW30142   2.179   4.271   5.004
 8432SOL    HW130143   2.217   4.212   5.076
 8432SOL    HW230144   2.219   4.245   4.916
 8433SOL     OW30145   2.674   5.310   4.411
 8433SOL    HW130146   2.706   5.320   4.317
 8433SOL    HW230147   2.595   5.248   4.413
 8434SOL     OW30148   3.286   3.938   4.836
 8434SOL    HW130149   3.338   3.873   4.891
 8434SOL    HW230150   3.237   4.001   4.897
 8435SOL     OW30151   2.863   3.758   4.878
 8435SOL    HW130152   2.800   3.686   4.847
 8435SOL    HW230153   2.956   3.722   4.878
 8436SOL     OW30154   2.632   5.054   4.025
 8436SOL    HW130155   2.586   4.967   4.042
 8436SOL    HW230156   2.723   5.051   4.066
 8437SOL     OW30157   3.214   3.776   3.892
 8437SOL    HW130158   3.249   3.735   3.808
 8437SOL    HW230159   3.124   3.738   3.912
 8438SOL     OW30160   3.162   4.177   4.415
 8438SOL    HW130161   3.103   4.257   4.419
 8438SOL    HW230162   3.177   4.142   4.508
 8439SOL     OW30163   1.901   4.801   4.024
 8439SOL    HW130164   2.000   4.790   4.015
 8439SOL    HW230165   1.861   4.715   4.056
 8440SOL     OW30166   2.737   5.370   4.061
 8440SOL    HW130167   2.660   5.335   4.007
 8440SOL    HW230168   2.705   5.441   4.123
 8441SOL     OW30169   2.092   4.352   5.699
 8441SOL    HW130170   1.999   4.350   5.736
 8441SOL    HW230171   2.093   4.313   5.607
 8442SOL     OW30172   2.087   3.999   6.582
 8442SOL    HW130173   2.122   3.982   6.674
 8442SOL    HW230174   1.999   3.954   6.570
 8443SOL     OW30175   1.881   4.092   6.233
 8443SOL    HW130176   1.799   4.135   6.272
 8443SOL    HW230177   1.853   4.019   6.170
 8444SOL     OW30178   2.431   4.999   6.751
 8444SOL    HW130179   2.338   4.992   6.714
 8444SOL    HW230180   2.442   5.088   6.795
 8445SOL     OW30181   3.417   5.235   6.289
 8445SOL    HW130182   3.360   5.219   6.370
 8445SOL    HW230183   3.358   5.245   6.209
 8446SOL     OW30184   2.997   4.427   6.303
 8446SOL    HW130185   3.054   4.505   6.278
 8446SOL    HW230186   2.937   4.453   6.379
 8447SOL     OW30187   3.617   4.331   5.817
 8447SOL    HW130188   3.605   4.318   5.718
 8447SOL    HW230189   3.587   4.250   5.866
 8448SOL     OW30190   2.630   4.868   6.609
 8448SOL    HW130191   2.552   4.885   6.669
 8448SOL    HW230192   2.664   4.955   6.573
 8449SOL     OW30193   2.712   4.522   7.409
 8449SOL    HW130194   2.708   4.598   7.474
 8449SOL    HW230195   2.734   4.558   7.318
 8450SOL     OW30196   2.547   4.736   6.251
 8450SOL    HW130197   2.616   4.720   6.321
 8450SOL    HW230198   2.474   4.793   6.289
 8451SOL     OW30199   2.548   4.885   7.389
 8451SOL    HW130200   2.608   4.964   7.403
 8451SOL    HW230201   2.462   4.916   7.348
 8452SOL     OW30202   2.197   5.159   6.647
 8452SOL    HW130203   2.119   5.128   6.594
 8452SOL    HW230204   2.255   5.217   6.590
 8453SOL     OW30205   3.322   5.229   6.925
 8453SOL    HW130206   3.346   5.323   6.951
 8453SOL    HW230207   3.306   5.175   7.007
 8454SOL     OW30208   2.300   4.116   7.085
 8454SOL    HW130209   2.382   4.060   7.094
 8454SOL    HW230210   2.219   4.058   7.089
 8455SOL     OW30211   3.465   4.171   6.323
 8455SOL    HW130212   3.391   4.217   6.273
 8455SOL    HW230213   3.516   4.239   6.376
 8456SOL     OW30214   2.093   5.437   6.069
 8456SOL    HW130215   2.127   5.514   6.123
 8456SOL    HW230216   2.137   5.437   5.979
 8457SOL     OW30217   2.989   5.065   7.276
 8457SOL    HW130218   3.036   5.065   7.364
 8457SOL    HW230219   2.941   4.978   7.265
 8458SOL     OW30220   2.092   5.158   6.124
 8458SOL    HW130221   2.066   5.254   6.124
 8458SOL    HW230222   2.021   5.104   6.169
 8459SOL     OW30223   2.102   4.815   6.472
 8459SOL    HW130224   2.116   4.731   6.524
 8459SOL    HW230225   2.047   4.879   6.527
 8460SOL     OW30226   2.482   5.510   7.025
 8460SOL    HW130227   2.390   5.493   7.060
 8460SOL    HW230228   2.510   5.602   7.051
 8461SOL     OW30229   2.468   4.688   5.709
 8461SOL    HW130230   2.475   4.772   5.655
 8461SOL    HW230231   2.514   4.701   5.797
 8462SOL     OW30232   3.456   3.838   7.066
 8462SOL    HW130233   3.438   3.905   6.994
 8462SOL    HW230234   3.453   3.884   7.155
 8463SOL     OW30235   1.984   4.367   6.149
 8463SOL    HW130236   1.939   4.279   6.166
 8463SOL    HW230237   1.983   4.421   6.233
 8464SOL     OW30238   3.704   5.491   5.945
 8464SOL    HW130239   3.758   5.462   6.025
 8464SOL    HW230240   3.734   5.581   5.916
 8465SOL     OW30241   1.889   5.320   5.703
 8465SOL    HW130242   1.870   5.224   5.724
 8465SOL    HW230243   1.856   5.378   5.778
 8466SOL     OW30244   3.551   4.646   6.198
 8466SOL    HW130245   3.646   4.617   6.206
 8466SOL    HW230246   3.543   4.711   6.123
 8467SOL     OW30247   3.503   4.832   6.018
 8467SOL    HW130248   3.589   4.834   5.966
 8467SOL    HW230249   3.517   4.879   6.106
 8468SOL     OW30250   1.975   4.461   7.183
 8468SOL    HW130251   2.063   4.448   7.228
 8468SOL    HW230252   1.962   4.558   7.161
 8469SOL     OW30253   2.475   5.089   6.312
 8469SOL    HW130254   2.426   5.002   6.321
 8469SOL    HW230255   2.452   5.132   6.225
 8470SOL     OW30256   3.155   4.952   7.009
 8470SOL    HW130257   3.192   4.879   6.951
 8470SOL    HW230258   3.207   4.957   7.094
 8471SOL     OW30259   2.671   3.728   6.088
 8471SOL    HW130260   2.711   3.819   6.079
 8471SOL    HW230261   2.571   3.736   6.094
 8472SOL     OW30262   2.059   4.700   6.850
 8472SOL    HW130263   2.148   4.655   6.836
 8472SOL    HW230264   1.986   4.635   6.831
 8473SOL     OW30265   3.387   4.723   5.776
 8473SOL    HW130266   3.324   4.647   5.789
 8473SOL    HW230267   3.435   4.741   5.862
 8474SOL     OW30268   3.049   5.516   7.202
 8474SOL    HW130269   3.073   5.576   7.126
 8474SOL    HW230270   3.056   5.421   7.172
 8475SOL     OW30271   2.179   3.975   7.387
 8475SOL    HW130272   2.250   4.046   7.393
 8475SOL    HW230273   2.091   4.014   7.415
 8476SOL     OW30274   3.328   5.141   6.539
 8476SOL    HW130275   3.269   5.147   6.619
 8476SOL    HW230276   3.313   5.053   6.493
 8477SOL     OW30277   3.529   5.438   6.158
 8477SOL    HW130278   3.488   5.415   6.070
 8477SOL    HW230279   3.511   5.364   6.223
 8478SOL     OW30280   2.460   4.453   5.856
 8478SOL    HW130281   2.484   4.522   5.788
 8478SOL    HW230282   2.382   4.486   5.910
 8479SOL     OW30283   3.143   4.069   6.530
 8479SOL    HW130284   3.057   4.019   6.517
 8479SOL    HW230285   3.205   4.015   6.586
 8480SOL     OW30286   3.438   5.386   5.893
 8480SOL    HW130287   3.527   5.432   5.896
 8480SOL    HW230288   3.417   5.362   5.798
 8481SOL     OW30289   2.669   4.329   7.051
 8481SOL    HW130290   2.622   4.326   7.140
 8481SOL    HW230291   2.618   4.274   6.985
 8482SOL     OW30292   3.256   4.193   7.260
 8482SOL    HW130293   3.236   4.236   7.348
 8482SOL    HW230294   3.334   4.131   7.269
 8483SOL     OW30295   2.835   4.614   7.158
 8483SOL    HW130296   2.881   4.530   7.129
 8483SOL    HW230297   2.779   4.648   7.083
 8484SOL     OW30298   2.853   4.134   6.828
 8484SOL    HW130299   2.776   4.168   6.882
 8484SOL    HW230300   2.819   4.083   6.749
 8485SOL     OW30301   2.903   4.425   6.015
 8485SOL    HW130302   2.929   4.421   6.111
 8485SOL    HW230303   2.818   4.374   6.001
 8486SOL     OW30304   1.938   4.535   6.375
 8486SOL    HW130305   2.037   4.523   6.384
 8486SOL    HW230306   1.914   4.630   6.396
 8487SOL     OW30307   1.992   5.545   7.157
 8487SOL    HW130308   1.982   5.530   7.256
 8487SOL    HW230309   1.906   5.581   7.121
 8488SOL     OW30310   2.727   4.072   5.781
 8488SOL    HW130311   2.786   4.135   5.732
 8488SOL    HW230312   2.746   3.978   5.752
 8489SOL     OW30313   3.581   4.309   7.417
 8489SOL    HW130314   3.555   4.398   7.381
 8489SOL    HW230315   3.579   4.241   7.344
 8490SOL     OW30316   3.224   4.868   6.131
 8490SOL    HW130317   3.307   4.839   6.083
 8490SOL    HW230318   3.175   4.935   6.075
 8491SOL     OW30319   2.870   5.180   6.063
 8491SOL    HW130320   2.824   5.252   6.011
 8491SOL    HW230321   2.866   5.200   6.161
 8492SOL     OW30322   2.213   5.525   6.439
 8492SOL    HW130323   2.263   5.439   6.445
 8492SOL    HW230324   2.278   5.602   6.436
 8493SOL     OW30325   3.657   4.790   6.459
 8493SOL    HW130326   3.595   4.775   6.383
 8493SOL    HW230327   3.605   4.801   6.544
 8494SOL     OW30328   3.089   5.274   7.092
 8494SOL    HW130329   3.095   5.197   7.156
 8494SOL    HW230330   3.037   5.248   7.012
 8495SOL     OW30331   2.183   4.667   5.828
 8495SOL    HW130332   2.265   4.706   5.786
 8495SOL    HW230333   2.156   4.585   5.779
 8496SOL     OW30334   3.320   4.459   6.314
 8496SOL    HW130335   3.315   4.394   6.389
 8496SOL    HW230336   3.400   4.518   6.327
 8497SOL     OW30337   2.323   4.990   7.313
 8497SOL    HW130338   2.273   4.991   7.227
 8497SOL    HW230339   2.260   4.972   7.389
 8498SOL     OW30340   2.973   5.500   5.823
 8498SOL    HW130341   2.913   5.438   5.873
 8498SOL    HW230342   3.004   5.456   5.738
 8499SOL     OW30343   2.064   4.009   7.084
 8499SOL    HW130344   1.984   4.069   7.071
 8499SOL    HW230345   2.054   3.960   7.170
 8500SOL     OW30346   3.494   5.101   5.667
 8500SOL    HW130347   3.462   5.195   5.657
 8500SOL    HW230348   3.418   5.038   5.655
 8501SOL     OW30349   2.326   5.467   5.909
 8501SOL    HW130350   2.359   5.506   5.995
 8501SOL    HW230351   2.402   5.460   5.844
 8502SOL     OW30352   3.262   3.831   6.012
 8502SOL    HW130353   3.238   3.794   5.922
 8502SOL    HW230354   3.361   3.847   6.016
 8503SOL     OW30355   2.111   5.509   6.827
 8503SOL    HW130356   2.168   5.444   6.877
 8503SOL    HW230357   2.095   5.476   6.734
 8504SOL     OW30358   2.802   5.422   6.490
 8504SOL    HW130359   2.882   5.365   6.511
 8504SOL    HW230360   2.753   5.382   6.413
 8505SOL     OW30361   2.244   4.424   6.066
 8505SOL    HW130362   2.289   4.334   6.063
 8505SOL    HW230363   2.150   4.413   6.099
 8506SOL     OW30364   3.409   3.946   7.315
 8506SOL    HW130365   3.404   3.983   7.407
 8506SOL    HW230366   3.337   3.877   7.303
 8507SOL     OW30367   2.476   3.846   5.703
 8507SOL    HW130368   2.574   3.824   5.710
 8507SOL    HW230369   2.445   3.829   5.610
 8508SOL     OW30370   2.643   3.988   7.335
 8508SOL    HW130371   2.710   3.927   7.378
 8508SOL    HW230372   2.570   4.007   7.400
 8509SOL     OW30373   2.665   5.126   6.510
 8509SOL    HW130374   2.755   5.140   6.468
 8509SOL    HW230375   2.594   5.128   6.439
 8510SOL     OW30376   2.784   4.227   6.485
 8510SOL    HW130377   2.759   4.218   6.389
 8510SOL    HW230378   2.832   4.145   6.516
 8511SOL     OW30379   2.401   3.788   6.098
 8511SOL    HW130380   2.320   3.789   6.156
 8511SOL    HW230381   2.404   3.871   6.043
 8512SOL     OW30382   3.296   4.912   5.627
 8512SOL    HW130383   3.328   4.836   5.684
 8512SOL    HW230384   3.204   4.939   5.657
 8513SOL     OW30385   2.159   3.759   5.757
 8513SOL    HW130386   2.208   3.843   5.736
 8513SOL    HW230387   2.221   3.694   5.802
 8514SOL     OW30388   2.797   3.960   6.066
 8514SOL    HW130389   2.749   4.001   5.988
 8514SOL    HW230390   2.896   3.958   6.047
 8515SOL     OW30391   2.938   4.407   7.050
 8515SOL    HW130392   2.858   4.346   7.053
 8515SOL    HW230393   3.019   4.354   7.026
 8516SOL     OW30394   3.089   5.294   6.379
 8516SOL    HW130395   3.110   5.368   6.314
 8516SOL    HW230396   3.157   5.294   6.452
 8517SOL     OW30397   2.321   4.876   6.327
 8517SOL    HW130398   2.250   4.849   6.392
 8517SOL    HW230399   2.295   4.848   6.234
 8518SOL     OW30400   3.133   5.521   6.177
 8518SOL    HW130401   3.177   5.585   6.113
 8518SOL    HW230402   3.083   5.573   6.247
 8519SOL     OW30403   2.894   4.273   5.602
 8519SOL    HW130404   2.853   4.355   5.563
 8519SOL    HW230405   2.958   4.299   5.675
 8520SOL     OW30406   1.940   4.280   6.972
 8520SOL    HW130407   2.032   4.279   6.931
 8520SOL    HW230408   1.934   4.354   7.039
 8521SOL     OW30409   2.423   3.946   6.733
 8521SOL    HW130410   2.461   3.862   6.770
 8521SOL    HW230411   2.335   3.965   6.777
 8522SOL     OW30412   2.728   4.178   6.228
 8522SOL    HW130413   2.696   4.250   6.166
 8522SOL    HW230414   2.752   4.097   6.175
 8523SOL     OW30415   2.879   3.763   6.339
 8523SOL    HW130416   2.807   3.768   6.270
 8523SOL    HW230417   2.855   3.694   6.408
 8524SOL     OW30418   3.291   4.897   6.453
 8524SOL    HW130419   3.236   4.813   6.446
 8524SOL    HW230420   3.317   4.926   6.361
 8525SOL     OW30421   3.328   4.314   6.578
 8525SOL    HW130422   3.298   4.219   6.585
 8525SOL    HW230423   3.401   4.330   6.644
 8526SOL     OW30424   3.719   4.557   5.963
 8526SOL    HW130425   3.761   4.493   6.027
 8526SOL    HW230426   3.681   4.506   5.885
 8527SOL     OW30427   2.350   5.109   5.760
 8527SOL    HW130428   2.263   5.094   5.807
 8527SOL    HW230429   2.333   5.135   5.665
 8528SOL     OW30430   3.526   5.004   6.243
 8528SOL    HW130431   3.625   5.012   6.257
 8528SOL    HW230432   3.481   5.088   6.274
 8529SOL     OW30433   3.252   4.299   5.664
 8529SOL    HW130434   3.198   4.278   5.745
 8529SOL    HW230435   3.343   4.258   5.673
 8530SOL     OW30436   2.389   3.980   5.914
 8530SOL    HW130437   2.416   3.921   5.839
 8530SOL    HW230438   2.389   4.075   5.883
 8531SOL     OW30439   3.616   4.947   7.174
 8531SOL    HW130440   3.707   4.908   7.161
 8531SOL    HW230441   3.624   5.043   7.198
 8532SOL     OW30442   2.926   5.071   6.926
 8532SOL    HW130443   2.846   5.048   6.981
 8532SOL    HW230444   3.009   5.045   6.975
 8533SOL     OW30445   3.454   5.353   7.211
 8533SOL    HW130446   3.481   5.387   7.121
 8533SOL    HW230447   3.533   5.315   7.257
 8534SOL     OW30448   2.973   4.919   6.686
 8534SOL    HW130449   2.933   4.963   6.767
 8534SOL    HW230450   2.932   4.956   6.603
 8535SOL     OW30451   3.500   4.823   6.665
 8535SOL    HW130452   3.505   4.904   6.724
 8535SOL    HW230453   3.414   4.825   6.614
 8536SOL     OW30454   2.777   3.813   6.988
 8536SOL    HW130455   2.802   3.793   6.893
 8536SOL    HW230456   2.849   3.869   7.030
 8537SOL     OW30457   2.567   4.774   5.954
 8537SOL    HW130458   2.553   4.781   6.053
 8537SOL    HW230459   2.651   4.723   5.936
 8538SOL     OW30460   2.272   4.537   6.837
 8538SOL    HW130461   2.358   4.549   6.887
 8538SOL    HW230462   2.230   4.450   6.864
 8539SOL     OW30463   3.136   4.110   6.848
 8539SOL    HW130464   3.157   4.184   6.912
 8539SOL    HW230465   3.047   4.127   6.805
 8540SOL     OW30466   1.926   5.288   6.917
 8540SOL    HW130467   1.880   5.370   6.883
 8540SOL    HW230468   2.024   5.307   6.926
 8541SOL     OW30469   2.229   4.824   6.087
 8541SOL    HW130470   2.222   4.907   6.031
 8541SOL    HW230471   2.233   4.744   6.027
 8542SOL     OW30472   3.114   5.072   5.974
 8542SOL    HW130473   3.164   5.149   6.014
 8542SOL    HW230474   3.019   5.074   6.006
 8543SOL     OW30475   3.134   5.169   6.728
 8543SOL    HW130476   3.181   5.182   6.815
 8543SOL    HW230477   3.068   5.095   6.737
 8544SOL     OW30478   3.444   4.363   6.058
 8544SOL    HW130479   3.413   4.424   6.131
 8544SOL    HW230480   3.494   4.415   5.989
 8545SOL     OW30481   2.216   5.234   6.915
 8545SOL    HW130482   2.195   5.190   6.828
 8545SOL    HW230483   2.313   5.260   6.918
 8546SOL     OW30484   2.264   4.475   7.184
 8546SOL    HW130485   2.332   4.530   7.137
 8546SOL    HW230486   2.304   4.387   7.211
 8547SOL     OW30487   3.449   4.503   7.256
 8547SOL    HW130488   3.357   4.541   7.251
 8547SOL    HW230489   3.509   4.550   7.191
 8548SOL     OW30490   2.875   3.829   7.356
 8548SOL    HW130491   2.881   3.914   7.304
 8548SOL    HW230492   2.907   3.753   7.299
 8549SOL     OW30493   2.366   3.774   7.326
 8549SOL    HW130494   2.324   3.717   7.256
 8549SOL    HW230495   2.300   3.843   7.358
 8550SOL     OW30496   3.222   4.586   6.631
 8550SOL    HW130497   3.147   4.586   6.565
 8550SOL    HW230498   3.259   4.494   6.640
 8551SOL     OW30499   3.071   4.249   5.861
 8551SOL    HW130500   3.084   4.165   5.915
 8551SOL    HW230501   3.042   4.323   5.921
 8552SOL     OW30502   2.169   3.937   6.817
 8552SOL    HW130503   2.146   3.974   6.907
 8552SOL    HW230504   2.139   3.842   6.811
 8553SOL     OW30505   1.899   5.034   6.868
 8553SOL    HW130506   1.952   4.985   6.936
 8553SOL    HW230507   1.921   5.132   6.873
 8554SOL     OW30508   3.590   4.659   7.440
 8554SOL    HW130509   3.544   4.652   7.351
 8554SOL    HW230510   3.528   4.703   7.506
 8555SOL     OW30511   2.169   3.787   6.204
 8555SOL    HW130512   2.158   3.881   6.237
 8555SOL    HW230513   2.164   3.724   6.281
 8556SOL     OW30514   3.484   4.091   5.960
 8556SOL    HW130515   3.486   4.015   6.024
 8556SOL    HW230516   3.436   4.168   6.000
 8557SOL     OW30517   2.885   4.490   6.552
 8557SOL    HW130518   2.900   4.511   6.648
 8557SOL    HW230519   2.855   4.395   6.543
 8558SOL     OW30520   2.842   5.297   7.286
 8558SOL    HW130521   2.822   5.341   7.198
 8558SOL    HW230522   2.881   5.206   7.270
 8559SOL     OW30523   3.721   5.242   7.191
 8559SOL    HW130524   3.735   5.269   7.096
 8559SOL    HW230525   3.804   5.264   7.244
 8560SOL     OW30526   2.212   4.622   7.390
 8560SOL    HW130527   2.288   4.666   7.438
 8560SOL    HW230528   2.247   4.575   7.308
 8561SOL     OW30529   3.402   3.998   5.711
 8561SOL    HW130530   3.341   3.923   5.734
 8561SOL    HW230531   3.424   4.050   5.794
 8562SOL     OW30532   3.165   4.562   5.628
 8562SOL    HW130533   3.199   4.469   5.643
 8562SOL    HW230534   3.183   4.589   5.533
 8563SOL     OW30535   2.930   5.057   6.435
 8563SOL    HW130536   2.937   4.973   6.380
 8563SOL    HW230537   2.992   5.126   6.399
 8564SOL     OW30538   2.181   4.534   6.535
 8564SOL    HW130539   2.274   4.570   6.540
 8564SOL    HW230540   2.175   4.449   6.587
 8565SOL     OW30541   3.000   4.104   7.264
 8565SOL    HW130542   2.955   4.167   7.328
 8565SOL    HW230543   3.093   4.135   7.247
 8566SOL     OW30544   3.022   3.931   7.063
 8566SOL    HW130545   3.022   3.995   7.140
 8566SOL    HW230546   3.050   3.979   6.980
 8567SOL     OW30547   1.870   5.050   5.786
 8567SOL    HW130548   1.777   5.071   5.755
 8567SOL    HW230549   1.880   4.951   5.799
 8568SOL     OW30550   1.950   5.525   6.513
 8568SOL    HW130551   1.908   5.439   6.486
 8568SOL    HW230552   2.044   5.528   6.479
 8569SOL     OW30553   2.366   5.292   6.496
 8569SOL    HW130554   2.432   5.366   6.505
 8569SOL    HW230555   2.410   5.213   6.454
 8570SOL     OW30556   2.864   4.520   6.824
 8570SOL    HW130557   2.905   4.488   6.910
 8570SOL    HW230558   2.768   4.493   6.821
 8571SOL     OW30559   1.902   4.268   6.700
 8571SOL    HW130560   1.987   4.235   6.659
 8571SOL    HW230561   1.915   4.283   6.798
 8572SOL     OW30562   2.051   4.244   7.308
 8572SOL    HW130563   2.110   4.204   7.238
 8572SOL    HW230564   1.993   4.315   7.267
 8573SOL     OW30565   3.231   4.674   7.246
 8573SOL    HW130566   3.270   4.763   7.266
 8573SOL    HW230567   3.241   4.654   7.149
 8574SOL     OW30568   2.677   4.296   5.911
 8574SOL    HW130569   2.684   4.207   5.865
 8574SOL    HW230570   2.583   4.330   5.903
 8575SOL     OW30571   3.519   4.328   6.792
 8575SOL    HW130572   3.481   4.259   6.854
 8575SOL    HW230573   3.601   4.292   6.748
 8576SOL     OW30574   2.114   5.288   7.330
 8576SOL    HW130575   2.084   5.345   7.406
 8576SOL    HW230576   2.107   5.191   7.356
 8577SOL     OW30577   2.792   5.402   7.051
 8577SOL    HW130578   2.768   5.384   6.956
 8577SOL    HW230579   2.822   5.496   7.061
 8578SOL     OW30580   2.335   4.224   5.777
 8578SOL    HW130581   2.396   4.304   5.781
 8578SOL    HW230582   2.240   4.255   5.784
 8579SOL     OW30583   2.021   4.861   7.052
 8579SOL    HW130584   2.043   4.800   7.128
 8579SOL    HW230585   2.031   4.812   6.966
 8580SOL     OW30586   3.209   4.783   6.820
 8580SOL    HW130587   3.233   4.720   6.746
 8580SOL    HW230588   3.119   4.823   6.802
 8581SOL     OW30589   3.164   4.579   5.895
 8581SOL    HW130590   3.078   4.548   5.937
 8581SOL    HW230591   3.160   4.565   5.796
 8582SOL     OW30592   3.621   5.471   6.740
 8582SOL    HW130593   3.682   5.501   6.667
 8582SOL    HW230594   3.583   5.382   6.718
 8583SOL     OW30595   3.114   5.455   6.714
 8583SOL    HW130596   3.198   5.460   6.660
 8583SOL    HW230597   3.091   5.359   6.732
 8584SOL     OW30598   1.945   4.982   6.608
 8584SOL    HW130599   1.940   4.981   6.708
 8584SOL    HW230600   1.862   4.941   6.570
 8585SOL     OW30601   2.550   5.386   7.302
 8585SOL    HW130602   2.494   5.467   7.311
 8585SOL    HW230603   2.602   5.390   7.216
 8586SOL     OW30604   3.588   3.859   6.109
 8586SOL    HW130605   3.661   3.842   6.042
 8586SOL    HW230606   3.557   3.772   6.147
 8587SOL     OW30607   3.250   5.297   6.063
 8587SOL    HW130608   3.317   5.309   5.989
 8587SOL    HW230609   3.210   5.386   6.086
 8588SOL     OW30610   1.992   5.518   7.437
 8588SOL    HW130611   1.951   5.444   7.490
 8588SOL    HW230612   2.056   5.569   7.495
 8589SOL     OW30613   3.142   4.651   6.258
 8589SOL    HW130614   3.202   4.570   6.260
 8589SOL    HW230615   3.182   4.720   6.198
 8590SOL     OW30616   2.692   4.997   7.008
 8590SOL    HW130617   2.687   5.030   7.103
 8590SOL    HW230618   2.606   5.016   6.962
 8591SOL     OW30619   2.534   5.340   5.740
 8591SOL    HW130620   2.543   5.350   5.641
 8591SOL    HW230621   2.494   5.251   5.761
 8592SOL     OW30622   3.512   5.444   6.980
 8592SOL    HW130623   3.565   5.454   6.896
 8592SOL    HW230624   3.485   5.534   7.014
 8593SOL     OW30625   3.703   3.899   6.549
 8593SOL    HW130626   3.742   3.814   6.513
 8593SOL    HW230627   3.605   3.901   6.530
 8594SOL     OW30628   2.125   4.050   6.306
 8594SOL    HW130629   2.046   4.101   6.272
 8594SOL    HW230630   2.116   4.035   6.404
 8595SOL     OW30631   3.056   5.336   5.617
 8595SOL    HW130632   3.062   5.243   5.654
 8595SOL    HW230633   2.997   5.336   5.537
 8596SOL     OW30634   2.684   4.726   6.958
 8596SOL    HW130635   2.724   4.725   6.866
 8596SOL    HW230636   2.694   4.818   6.998
 8597SOL     OW30637   3.366   5.331   5.630
 8597SOL    HW130638   3.274   5.368   5.637
 8597SOL    HW230639   3.404   5.351   5.540
 8598SOL     OW30640   2.234   5.012   7.076
 8598SOL    HW130641   2.221   5.105   7.042
 8598SOL    HW230642   2.150   4.960   7.063
 8599SOL     OW30643   3.476   5.016   6.875
 8599SOL    HW130644   3.536   5.019   6.955
 8599SOL    HW230645   3.401   5.080   6.888
 8600SOL     OW30646   2.901   4.822   6.282
 8600SOL    HW130647   2.831   4.775   6.336
 8600SOL    HW230648   2.960   4.754   6.239
 8601SOL     OW30649   2.876   3.960   6.557
 8601SOL    HW130650   2.868   3.924   6.464
 8601SOL    HW230651   2.874   3.884   6.622
 8602SOL     OW30652   2.452   5.211   6.077
 8602SOL    HW130653   2.494   5.153   6.007
 8602SOL    HW230654   2.408   5.290   6.033
 8603SOL     OW30655   3.571   4.109   6.967
 8603SOL    HW130656   3.644   4.178   6.971
 8603SOL    HW230657   3.599   4.034   6.908
 8604SOL     OW30658   2.117   5.072   5.876
 8604SOL    HW130659   2.021   5.073   5.849
 8604SOL    HW230660   2.129   5.125   5.960
 8605SOL     OW30661   1.967   4.737   7.312
 8605SOL    HW130662   1.890   4.704   7.366
 8605SOL    HW230663   2.052   4.707   7.354
 8606SOL     OW30664   2.534   3.927   7.075
 8606SOL    HW130665   2.624   3.911   7.035
 8606SOL    HW230666   2.542   3.932   7.174
 8607SOL     OW30667   1.937   4.069   5.619
 8607SOL    HW130668   1.845   4.041   5.590
 8607SOL    HW230669   1.968   4.146   5.563
 8608SOL     OW30670   3.302   4.580   6.984
 8608SOL    HW130671   3.245   4.632   6.921
 8608SOL    HW230672   3.398   4.592   6.960
 8609SOL     OW30673   1.934   3.890   5.904
 8609SOL    HW130674   1.917   3.973   5.850
 8609SOL    HW230675   2.024   3.853   5.882
 8610SOL     OW30676   3.045   5.059   5.705
 8610SOL    HW130677   2.946   5.048   5.707
 8610SOL    HW230678   3.079   5.074   5.798
 8611SOL     OW30679   2.475   4.566   7.017
 8611SOL    HW130680   2.531   4.647   7.000
 8611SOL    HW230681   2.534   4.486   7.020
 8612SOL     OW30682   3.355   5.491   6.545
 8612SOL    HW130683   3.388   5.555   6.476
 8612SOL    HW230684   3.421   5.485   6.620
 8613SOL     OW30685   2.578   4.289   7.294
 8613SOL    HW130686   2.597   4.354   7.368
 8613SOL    HW230687   2.638   4.209   7.303
 8614SOL     OW30688   3.312   4.944   7.219
 8614SOL    HW130689   3.303   4.934   7.318
 8614SOL    HW230690   3.408   4.937   7.193
 8615SOL     OW30691   2.252   5.465   7.146
 8615SOL    HW130692   2.161   5.506   7.144
 8615SOL    HW230693   2.245   5.371   7.178
 8616SOL     OW30694   3.536   4.607   6.840
 8616SOL    HW130695   3.509   4.518   6.803
 8616SOL    HW230696   3.537   4.675   6.767
 8617SOL     OW30697   3.087   4.049   6.035
 8617SOL    HW130698   3.152   3.975   6.024
 8617SOL    HW230699   3.107   4.099   6.119
 8618SOL     OW30700   2.456   4.469   6.238
 8618SOL    HW130701   2.506   4.554   6.219
 8618SOL    HW230702   2.368   4.471   6.190
 8619SOL     OW30703   3.639   4.066   7.228
 8619SOL    HW130704   3.622   4.097   7.134
 8619SOL    HW230705   3.555   4.029   7.266
 8620SOL     OW30706   3.592   4.658   7.103
 8620SOL    HW130707   3.630   4.749   7.118
 8620SOL    HW230708   3.584   4.641   7.004
 8621SOL     OW30709   2.721   5.098   5.602
 8621SOL    HW130710   2.675   5.113   5.690
 8621SOL    HW230711   2.765   5.183   5.572
 8622SOL     OW30712   2.523   5.514   6.539
 8622SOL    HW130713   2.477   5.602   6.526
 8622SOL    HW230714   2.622   5.526   6.532
 8623SOL     OW30715   2.721   4.680   6.447
 8623SOL    HW130716   2.775   4.611   6.495
 8623SOL    HW230717   2.689   4.749   6.513
 8624SOL     OW30718   2.945   4.708   5.673
 8624SOL    HW130719   2.922   4.761   5.591
 8624SOL    HW230720   3.026   4.652   5.654
 8625SOL     OW30721   3.723   5.293   6.437
 8625SOL    HW130722   3.652   5.281   6.367
 8625SOL    HW230723   3.724   5.214   6.497
 8626SOL     OW30724   1.941   4.964   6.239
 8626SOL    HW130725   1.940   4.917   6.327
 8626SOL    HW230726   2.023   4.936   6.188
 8627SOL     OW30727   2.534   5.115   7.210
 8627SOL    HW130728   2.456   5.065   7.248
 8627SOL    HW230729   2.531   5.210   7.241
 8628SOL     OW30730   3.686   3.916   6.813
 8628SOL    HW130731   3.682   3.826   6.857
 8628SOL    HW230732   3.689   3.905   6.714
 8629SOL     OW30733   2.290   4.148   6.106
 8629SOL    HW130734   2.320   4.076   6.044
 8629SOL    HW230735   2.251   4.108   6.189
 8630SOL     OW30736   3.567   5.211   6.690
 8630SOL    HW130737   3.474   5.186   6.663
 8630SOL    HW230738   3.593   5.161   6.772
 8631SOL     OW30739   2.179   4.271   6.866
 8631SOL    HW130740   2.217   4.212   6.938
 8631SOL    HW230741   2.219   4.245   6.778
 8632SOL     OW30742   2.674   5.310   6.273
 8632SOL    HW130743   2.706   5.320   6.179
 8632SOL    HW230744   2.595   5.248   6.275
 8633SOL     OW30745   3.286   3.938   6.698
 8633SOL    HW130746   3.338   3.873   6.753
 8633SOL    HW230747   3.237   4.001   6.759
 8634SOL     OW30748   2.863   3.758   6.740
 8634SOL    HW130749   2.800   3.686   6.709
 8634SOL    HW230750   2.956   3.722   6.740
 8635SOL     OW30751   2.632   5.054   5.887
 8635SOL    HW130752   2.586   4.967   5.904
 8635SOL    HW230753   2.723   5.051   5.928
 8636SOL     OW30754   2.480   5.291   6.870
 8636SOL    HW130755   2.475   5.373   6.927
 8636SOL    HW230756   2.569   5.288   6.825
 8637SOL     OW30757   3.214   3.776   5.754
 8637SOL    HW130758   3.249   3.735   5.670
 8637SOL    HW230759   3.124   3.738   5.774
 8638SOL     OW30760   3.162   4.177   6.277
 8638SOL    HW130761   3.103   4.257   6.281
 8638SOL    HW230762   3.177   4.142   6.370
 8639SOL     OW30763   3.455   3.945   6.468
 8639SOL    HW130764   3.371   3.944   6.522
 8639SOL    HW230765   3.457   4.028   6.412
 8640SOL     OW30766   1.901   4.801   5.886
 8640SOL    HW130767   2.000   4.790   5.877
 8640SOL    HW230768   1.861   4.715   5.918
 8641SOL     OW30769   2.737   5.370   5.923
 8641SOL    HW130770   2.660   5.335   5.869
 8641SOL    HW230771   2.705   5.441   5.985
 8642SOL     OW30772   2.092   4.352   7.561
 8642SOL    HW130773   1.999   4.350   7.598
 8642SOL    HW230774   2.093   4.313   7.469
 8643SOL     OW30775   2.087   3.999   8.444
 8643SOL    HW130776   2.122   3.982   8.536
 8643SOL    HW230777   1.999   3.954   8.432
 8644SOL     OW30778   1.881   4.092   8.095
 8644SOL    HW130779   1.799   4.135   8.134
 8644SOL    HW230780   1.853   4.019   8.032
 8645SOL     OW30781   2.431   4.999   8.613
 8645SOL    HW130782   2.338   4.992   8.576
 8645SOL    HW230783   2.442   5.088   8.657
 8646SOL     OW30784   3.417   5.235   8.151
 8646SOL    HW130785   3.360   5.219   8.232
 8646SOL    HW230786   3.358   5.245   8.071
 8647SOL     OW30787   2.997   4.427   8.165
 8647SOL    HW130788   3.054   4.505   8.140
 8647SOL    HW230789   2.937   4.453   8.241
 8648SOL     OW30790   3.617   4.331   7.679
 8648SOL    HW130791   3.605   4.318   7.580
 8648SOL    HW230792   3.587   4.250   7.728
 8649SOL     OW30793   2.630   4.868   8.471
 8649SOL    HW130794   2.552   4.885   8.531
 8649SOL    HW230795   2.664   4.955   8.435
 8650SOL     OW30796   2.712   4.522   9.271
 8650SOL    HW130797   2.708   4.598   9.336
 8650SOL    HW230798   2.734   4.558   9.180
 8651SOL     OW30799   2.547   4.736   8.113
 8651SOL    HW130800   2.616   4.720   8.183
 8651SOL    HW230801   2.474   4.793   8.151
 8652SOL     OW30802   2.548   4.885   9.251
 8652SOL    HW130803   2.608   4.964   9.265
 8652SOL    HW230804   2.462   4.916   9.210
 8653SOL     OW30805   2.197   5.159   8.509
 8653SOL    HW130806   2.119   5.128   8.456
 8653SOL    HW230807   2.255   5.217   8.452
 8654SOL     OW30808   3.322   5.229   8.787
 8654SOL    HW130809   3.346   5.323   8.813
 8654SOL    HW230810   3.306   5.175   8.869
 8655SOL     OW30811   2.300   4.116   8.947
 8655SOL    HW130812   2.382   4.060   8.956
 8655SOL    HW230813   2.219   4.058   8.951
 8656SOL     OW30814   3.465   4.171   8.185
 8656SOL    HW130815   3.391   4.217   8.135
 8656SOL    HW230816   3.516   4.239   8.238
 8657SOL     OW30817   2.093   5.437   7.931
 8657SOL    HW130818   2.127   5.514   7.985
 8657SOL    HW230819   2.137   5.437   7.841
 8658SOL     OW30820   2.989   5.065   9.138
 8658SOL    HW130821   3.036   5.065   9.226
 8658SOL    HW230822   2.941   4.978   9.127
 8659SOL     OW30823   2.092   5.158   7.986
 8659SOL    HW130824   2.066   5.254   7.986
 8659SOL    HW230825   2.021   5.104   8.031
 8660SOL     OW30826   2.102   4.815   8.334
 8660SOL    HW130827   2.116   4.731   8.386
 8660SOL    HW230828   2.047   4.879   8.389
 8661SOL     OW30829   2.482   5.510   8.887
 8661SOL    HW130830   2.390   5.493   8.922
 8661SOL    HW230831   2.510   5.602   8.913
 8662SOL     OW30832   2.468   4.688   7.571
 8662SOL    HW130833   2.475   4.772   7.517
 8662SOL    HW230834   2.514   4.701   7.659
 8663SOL     OW30835   3.456   3.838   8.928
 8663SOL    HW130836   3.438   3.905   8.856
 8663SOL    HW230837   3.453   3.884   9.017
 8664SOL     OW30838   1.984   4.367   8.011
 8664SOL    HW130839   1.939   4.279   8.028
 8664SOL    HW230840   1.983   4.421   8.095
 8665SOL     OW30841   3.704   5.491   7.807
 8665SOL    HW130842   3.758   5.462   7.887
 8665SOL    HW230843   3.734   5.581   7.778
 8666SOL     OW30844   3.551   4.646   8.060
 8666SOL    HW130845   3.646   4.617   8.068
 8666SOL    HW230846   3.543   4.711   7.985
 8667SOL     OW30847   3.503   4.832   7.880
 8667SOL    HW130848   3.589   4.834   7.828
 8667SOL    HW230849   3.517   4.879   7.968
 8668SOL     OW30850   1.975   4.461   9.045
 8668SOL    HW130851   2.063   4.448   9.090
 8668SOL    HW230852   1.962   4.558   9.023
 8669SOL     OW30853   2.475   5.089   8.174
 8669SOL    HW130854   2.426   5.002   8.183
 8669SOL    HW230855   2.452   5.132   8.087
 8670SOL     OW30856   3.155   4.952   8.871
 8670SOL    HW130857   3.192   4.879   8.813
 8670SOL    HW230858   3.207   4.957   8.956
 8671SOL     OW30859   2.671   3.728   7.950
 8671SOL    HW130860   2.711   3.819   7.941
 8671SOL    HW230861   2.571   3.736   7.956
 8672SOL     OW30862   2.059   4.700   8.712
 8672SOL    HW130863   2.148   4.655   8.698
 8672SOL    HW230864   1.986   4.635   8.693
 8673SOL     OW30865   3.387   4.723   7.638
 8673SOL    HW130866   3.324   4.647   7.651
 8673SOL    HW230867   3.435   4.741   7.724
 8674SOL     OW30868   3.049   5.516   9.064
 8674SOL    HW130869   3.073   5.576   8.988
 8674SOL    HW230870   3.056   5.421   9.034
 8675SOL     OW30871   2.179   3.975   9.249
 8675SOL    HW130872   2.250   4.046   9.255
 8675SOL    HW230873   2.091   4.014   9.277
 8676SOL     OW30874   3.328   5.141   8.401
 8676SOL    HW130875   3.269   5.147   8.481
 8676SOL    HW230876   3.313   5.053   8.355
 8677SOL     OW30877   3.529   5.438   8.020
 8677SOL    HW130878   3.488   5.415   7.932
 8677SOL    HW230879   3.511   5.364   8.085
 8678SOL     OW30880   3.143   4.069   8.392
 8678SOL    HW130881   3.057   4.019   8.379
 8678SOL    HW230882   3.205   4.015   8.448
 8679SOL     OW30883   3.438   5.386   7.755
 8679SOL    HW130884   3.527   5.432   7.758
 8679SOL    HW230885   3.417   5.362   7.660
 8680SOL     OW30886   2.669   4.329   8.913
 8680SOL    HW130887   2.622   4.326   9.002
 8680SOL    HW230888   2.618   4.274   8.847
 8681SOL     OW30889   3.256   4.193   9.122
 8681SOL    HW130890   3.236   4.236   9.210
 8681SOL    HW230891   3.334   4.131   9.131
 8682SOL     OW30892   2.835   4.614   9.020
 8682SOL    HW130893   2.881   4.530   8.991
 8682SOL    HW230894   2.779   4.648   8.945
 8683SOL     OW30895   2.853   4.134   8.690
 8683SOL    HW130896   2.776   4.168   8.744
 8683SOL    HW230897   2.819   4.083   8.611
 8684SOL     OW30898   2.903   4.425   7.877
 8684SOL    HW130899   2.929   4.421   7.973
 8684SOL    HW230900   2.818   4.374   7.863
 8685SOL     OW30901   1.938   4.535   8.237
 8685SOL    HW130902   2.037   4.523   8.246
 8685SOL    HW230903   1.914   4.630   8.258
 8686SOL     OW30904   1.992   5.545   9.019
 8686SOL    HW130905   1.982   5.530   9.118
 8686SOL    HW230906   1.906   5.581   8.983
 8687SOL     OW30907   2.727   4.072   7.643
 8687SOL    HW130908   2.786   4.135   7.594
 8687SOL    HW230909   2.746   3.978   7.614
 8688SOL     OW30910   3.581   4.309   9.279
 8688SOL    HW130911   3.555   4.398   9.243
 8688SOL    HW230912   3.579   4.241   9.206
 8689SOL     OW30913   3.224   4.868   7.993
 8689SOL    HW130914   3.307   4.839   7.945
 8689SOL    HW230915   3.175   4.935   7.937
 8690SOL     OW30916   2.412   3.920   8.333
 8690SOL    HW130917   2.407   3.915   8.433
 8690SOL    HW230918   2.414   4.016   8.304
 8691SOL     OW30919   2.870   5.180   7.925
 8691SOL    HW130920   2.824   5.252   7.873
 8691SOL    HW230921   2.866   5.200   8.023
 8692SOL     OW30922   2.213   5.525   8.301
 8692SOL    HW130923   2.263   5.439   8.307
 8692SOL    HW230924   2.278   5.602   8.298
 8693SOL     OW30925   3.657   4.790   8.321
 8693SOL    HW130926   3.595   4.775   8.245
 8693SOL    HW230927   3.605   4.801   8.406
 8694SOL     OW30928   3.089   5.274   8.954
 8694SOL    HW130929   3.095   5.197   9.018
 8694SOL    HW230930   3.037   5.248   8.874
 8695SOL     OW30931   2.183   4.667   7.690
 8695SOL    HW130932   2.265   4.706   7.648
 8695SOL    HW230933   2.156   4.585   7.641
 8696SOL     OW30934   3.320   4.459   8.176
 8696SOL    HW130935   3.315   4.394   8.251
 8696SOL    HW230936   3.400   4.518   8.189
 8697SOL     OW30937   2.323   4.990   9.175
 8697SOL    HW130938   2.273   4.991   9.089
 8697SOL    HW230939   2.260   4.972   9.251
 8698SOL     OW30940   2.973   5.500   7.685
 8698SOL    HW130941   2.913   5.438   7.735
 8698SOL    HW230942   3.004   5.456   7.600
 8699SOL     OW30943   2.064   4.009   8.946
 8699SOL    HW130944   1.984   4.069   8.933
 8699SOL    HW230945   2.054   3.960   9.032
 8700SOL     OW30946   3.494   5.101   7.529
 8700SOL    HW130947   3.462   5.195   7.519
 8700SOL    HW230948   3.418   5.038   7.517
 8701SOL     OW30949   2.326   5.467   7.771
 8701SOL    HW130950   2.359   5.506   7.857
 8701SOL    HW230951   2.402   5.460   7.706
 8702SOL     OW30952   3.262   3.831   7.874
 8702SOL    HW130953   3.238   3.794   7.784
 8702SOL    HW230954   3.361   3.847   7.878
 8703SOL     OW30955   2.111   5.509   8.689
 8703SOL    HW130956   2.168   5.444   8.739
 8703SOL    HW230957   2.095   5.476   8.596
 8704SOL     OW30958   2.802   5.422   8.352
 8704SOL    HW130959   2.882   5.365   8.373
 8704SOL    HW230960   2.753   5.382   8.275
 8705SOL     OW30961   2.244   4.424   7.928
 8705SOL    HW130962   2.289   4.334   7.925
 8705SOL    HW230963   2.150   4.413   7.961
 8706SOL     OW30964   2.476   3.846   7.565
 8706SOL    HW130965   2.574   3.824   7.572
 8706SOL    HW230966   2.445   3.829   7.472
 8707SOL     OW30967   2.643   3.988   9.197
 8707SOL    HW130968   2.710   3.927   9.240
 8707SOL    HW230969   2.570   4.007   9.262
 8708SOL     OW30970   2.750   5.238   8.643
 8708SOL    HW130971   2.727   5.213   8.549
 8708SOL    HW230972   2.811   5.169   8.682
 8709SOL     OW30973   3.213   4.314   8.881
 8709SOL    HW130974   3.241   4.271   8.966
 8709SOL    HW230975   3.238   4.410   8.882
 8710SOL     OW30976   2.665   5.126   8.372
 8710SOL    HW130977   2.755   5.140   8.330
 8710SOL    HW230978   2.594   5.128   8.301
 8711SOL     OW30979   2.784   4.227   8.347
 8711SOL    HW130980   2.759   4.218   8.251
 8711SOL    HW230981   2.832   4.145   8.378
 8712SOL     OW30982   2.401   3.788   7.960
 8712SOL    HW130983   2.320   3.789   8.018
 8712SOL    HW230984   2.404   3.871   7.905
 8713SOL     OW30985   3.296   4.912   7.489
 8713SOL    HW130986   3.328   4.836   7.546
 8713SOL    HW230987   3.204   4.939   7.519
 8714SOL     OW30988   2.159   3.759   7.619
 8714SOL    HW130989   2.208   3.843   7.598
 8714SOL    HW230990   2.221   3.694   7.664
 8715SOL     OW30991   2.797   3.960   7.928
 8715SOL    HW130992   2.749   4.001   7.850
 8715SOL    HW230993   2.896   3.958   7.909
 8716SOL     OW30994   2.938   4.407   8.912
 8716SOL    HW130995   2.858   4.346   8.915
 8716SOL    HW230996   3.019   4.354   8.888
 8717SOL     OW30997   3.089   5.294   8.241
 8717SOL    HW130998   3.110   5.368   8.176
 8717SOL    HW230999   3.157   5.294   8.314
 8718SOL     OW31000   2.321   4.876   8.189
 8718SOL    HW131001   2.250   4.849   8.254
 8718SOL    HW231002   2.295   4.848   8.096
 8719SOL     OW31003   3.133   5.521   8.039
 8719SOL    HW131004   3.177   5.585   7.975
 8719SOL    HW231005   3.083   5.573   8.109
 8720SOL     OW31006   2.894   4.273   7.464
 8720SOL    HW131007   2.853   4.355   7.425
 8720SOL    HW231008   2.958   4.299   7.537
 8721SOL     OW31009   1.940   4.280   8.834
 8721SOL    HW131010   2.032   4.279   8.793
 8721SOL    HW231011   1.934   4.354   8.901
 8722SOL     OW31012   2.423   3.946   8.595
 8722SOL    HW131013   2.461   3.862   8.632
 8722SOL    HW231014   2.335   3.965   8.639
 8723SOL     OW31015   2.728   4.178   8.090
 8723SOL    HW131016   2.696   4.250   8.028
 8723SOL    HW231017   2.752   4.097   8.037
 8724SOL     OW31018   2.879   3.763   8.201
 8724SOL    HW131019   2.807   3.768   8.132
 8724SOL    HW231020   2.855   3.694   8.270
 8725SOL     OW31021   3.291   4.897   8.315
 8725SOL    HW131022   3.236   4.813   8.308
 8725SOL    HW231023   3.317   4.926   8.223
 8726SOL     OW31024   3.328   4.314   8.440
 8726SOL    HW131025   3.298   4.219   8.447
 8726SOL    HW231026   3.401   4.330   8.506
 8727SOL     OW31027   3.719   4.557   7.825
 8727SOL    HW131028   3.761   4.493   7.889
 8727SOL    HW231029   3.681   4.506   7.747
 8728SOL     OW31030   2.350   5.109   7.622
 8728SOL    HW131031   2.263   5.094   7.669
 8728SOL    HW231032   2.333   5.135   7.527
 8729SOL     OW31033   3.526   5.004   8.105
 8729SOL    HW131034   3.625   5.012   8.119
 8729SOL    HW231035   3.481   5.088   8.136
 8730SOL     OW31036   3.252   4.299   7.526
 8730SOL    HW131037   3.198   4.278   7.607
 8730SOL    HW231038   3.343   4.258   7.535
 8731SOL     OW31039   2.389   3.980   7.776
 8731SOL    HW131040   2.416   3.921   7.701
 8731SOL    HW231041   2.389   4.075   7.745
 8732SOL     OW31042   3.616   4.947   9.036
 8732SOL    HW131043   3.707   4.908   9.023
 8732SOL    HW231044   3.624   5.043   9.060
 8733SOL     OW31045   2.926   5.071   8.788
 8733SOL    HW131046   2.846   5.048   8.843
 8733SOL    HW231047   3.009   5.045   8.837
 8734SOL     OW31048   3.454   5.353   9.073
 8734SOL    HW131049   3.481   5.387   8.983
 8734SOL    HW231050   3.533   5.315   9.119
 8735SOL     OW31051   2.973   4.919   8.548
 8735SOL    HW131052   2.933   4.963   8.629
 8735SOL    HW231053   2.932   4.956   8.465
 8736SOL     OW31054   3.500   4.823   8.527
 8736SOL    HW131055   3.505   4.904   8.586
 8736SOL    HW231056   3.414   4.825   8.476
 8737SOL     OW31057   2.777   3.813   8.850
 8737SOL    HW131058   2.802   3.793   8.755
 8737SOL    HW231059   2.849   3.869   8.892
 8738SOL     OW31060   2.842   4.840   9.167
 8738SOL    HW131061   2.743   4.846   9.177
 8738SOL    HW231062   2.865   4.760   9.111
 8739SOL     OW31063   2.567   4.774   7.816
 8739SOL    HW131064   2.553   4.781   7.915
 8739SOL    HW231065   2.651   4.723   7.798
 8740SOL     OW31066   2.272   4.537   8.699
 8740SOL    HW131067   2.358   4.549   8.749
 8740SOL    HW231068   2.230   4.450   8.726
 8741SOL     OW31069   3.136   4.110   8.710
 8741SOL    HW131070   3.157   4.184   8.774
 8741SOL    HW231071   3.047   4.127   8.667
 8742SOL     OW31072   1.926   5.288   8.779
 8742SOL    HW131073   1.880   5.370   8.745
 8742SOL    HW231074   2.024   5.307   8.788
 8743SOL     OW31075   2.229   4.824   7.949
 8743SOL    HW131076   2.222   4.907   7.893
 8743SOL    HW231077   2.233   4.744   7.889
 8744SOL     OW31078   2.428   4.261   8.313
 8744SOL    HW131079   2.440   4.327   8.239
 8744SOL    HW231080   2.474   4.295   8.396
 8745SOL     OW31081   3.114   5.072   7.836
 8745SOL    HW131082   3.164   5.149   7.876
 8745SOL    HW231083   3.019   5.074   7.868
 8746SOL     OW31084   3.134   5.169   8.590
 8746SOL    HW131085   3.181   5.182   8.677
 8746SOL    HW231086   3.068   5.095   8.599
 8747SOL     OW31087   3.444   4.363   7.920
 8747SOL    HW131088   3.413   4.424   7.993
 8747SOL    HW231089   3.494   4.415   7.851
 8748SOL     OW31090   2.216   5.234   8.777
 8748SOL    HW131091   2.195   5.190   8.690
 8748SOL    HW231092   2.313   5.260   8.780
 8749SOL     OW31093   2.264   4.475   9.046
 8749SOL    HW131094   2.332   4.530   8.999
 8749SOL    HW231095   2.304   4.387   9.073
 8750SOL     OW31096   3.449   4.503   9.118
 8750SOL    HW131097   3.357   4.541   9.113
 8750SOL    HW231098   3.509   4.550   9.053
 8751SOL     OW31099   2.875   3.829   9.218
 8751SOL    HW131100   2.881   3.914   9.166
 8751SOL    HW231101   2.907   3.753   9.161
 8752SOL     OW31102   2.366   3.774   9.188
 8752SOL    HW131103   2.324   3.717   9.118
 8752SOL    HW231104   2.300   3.843   9.220
 8753SOL     OW31105   2.435   4.594   8.477
 8753SOL    HW131106   2.479   4.683   8.468
 8753SOL    HW231107   2.372   4.594   8.554
 8754SOL     OW31108   3.222   4.586   8.493
 8754SOL    HW131109   3.147   4.586   8.427
 8754SOL    HW231110   3.259   4.494   8.502
 8755SOL     OW31111   3.071   4.249   7.723
 8755SOL    HW131112   3.084   4.165   7.777
 8755SOL    HW231113   3.042   4.323   7.783
 8756SOL     OW31114   2.169   3.937   8.679
 8756SOL    HW131115   2.146   3.974   8.769
 8756SOL    HW231116   2.139   3.842   8.673
 8757SOL     OW31117   1.899   5.034   8.730
 8757SOL    HW131118   1.952   4.985   8.798
 8757SOL    HW231119   1.921   5.132   8.735
 8758SOL     OW31120   3.590   4.659   9.302
 8758SOL    HW131121   3.544   4.652   9.213
 8758SOL    HW231122   3.528   4.703   9.368
 8759SOL     OW31123   2.169   3.787   8.066
 8759SOL    HW131124   2.158   3.881   8.099
 8759SOL    HW231125   2.164   3.724   8.143
 8760SOL     OW31126   3.484   4.091   7.822
 8760SOL    HW131127   3.486   4.015   7.886
 8760SOL    HW231128   3.436   4.168   7.862
 8761SOL     OW31129   2.885   4.490   8.414
 8761SOL    HW131130   2.900   4.511   8.510
 8761SOL    HW231131   2.855   4.395   8.405
 8762SOL     OW31132   2.842   5.297   9.148
 8762SOL    HW131133   2.822   5.341   9.060
 8762SOL    HW231134   2.881   5.206   9.132
 8763SOL     OW31135   3.721   5.242   9.053
 8763SOL    HW131136   3.735   5.269   8.958
 8763SOL    HW231137   3.804   5.264   9.106
 8764SOL     OW31138   2.212   4.622   9.252
 8764SOL    HW131139   2.288   4.666   9.300
 8764SOL    HW231140   2.247   4.575   9.170
 8765SOL     OW31141   3.402   3.998   7.573
 8765SOL    HW131142   3.341   3.923   7.596
 8765SOL    HW231143   3.424   4.050   7.656
 8766SOL     OW31144   3.165   4.562   7.490
 8766SOL    HW131145   3.199   4.469   7.505
 8766SOL    HW231146   3.183   4.589   7.395
 8767SOL     OW31147   2.930   5.057   8.297
 8767SOL    HW131148   2.937   4.973   8.242
 8767SOL    HW231149   2.992   5.126   8.261
 8768SOL     OW31150   2.181   4.534   8.397
 8768SOL    HW131151   2.274   4.570   8.402
 8768SOL    HW231152   2.175   4.449   8.449
 8769SOL     OW31153   2.201   4.233   8.454
 8769SOL    HW131154   2.149   4.150   8.437
 8769SOL    HW231155   2.278   4.238   8.390
 8770SOL     OW31156   3.000   4.104   9.126
 8770SOL    HW131157   2.955   4.167   9.190
 8770SOL    HW231158   3.093   4.135   9.109
 8771SOL     OW31159   3.022   3.931   8.925
 8771SOL    HW131160   3.022   3.995   9.002
 8771SOL    HW231161   3.050   3.979   8.842
 8772SOL     OW31162   1.950   5.525   8.375
 8772SOL    HW131163   1.908   5.439   8.348
 8772SOL    HW231164   2.044   5.528   8.341
 8773SOL     OW31165   2.366   5.292   8.358
 8773SOL    HW131166   2.432   5.366   8.367
 8773SOL    HW231167   2.410   5.213   8.316
 8774SOL     OW31168   2.864   4.520   8.686
 8774SOL    HW131169   2.905   4.488   8.772
 8774SOL    HW231170   2.768   4.493   8.683
 8775SOL     OW31171   1.902   4.268   8.562
 8775SOL    HW131172   1.987   4.235   8.521
 8775SOL    HW231173   1.915   4.283   8.660
 8776SOL     OW31174   3.231   4.674   9.108
 8776SOL    HW131175   3.270   4.763   9.128
 8776SOL    HW231176   3.241   4.654   9.011
 8777SOL     OW31177   2.677   4.296   7.773
 8777SOL    HW131178   2.684   4.207   7.727
 8777SOL    HW231179   2.583   4.330   7.765
 8778SOL     OW31180   3.519   4.328   8.654
 8778SOL    HW131181   3.481   4.259   8.716
 8778SOL    HW231182   3.601   4.292   8.610
 8779SOL     OW31183   2.114   5.288   9.192
 8779SOL    HW131184   2.084   5.345   9.268
 8779SOL    HW231185   2.107   5.191   9.218
 8780SOL     OW31186   2.533   4.188   8.717
 8780SOL    HW131187   2.499   4.099   8.687
 8780SOL    HW231188   2.559   4.242   8.637
 8781SOL     OW31189   2.792   5.402   8.913
 8781SOL    HW131190   2.768   5.384   8.818
 8781SOL    HW231191   2.822   5.496   8.923
 8782SOL     OW31192   2.335   4.224   7.639
 8782SOL    HW131193   2.396   4.304   7.643
 8782SOL    HW231194   2.240   4.255   7.646
 8783SOL     OW31195   2.021   4.861   8.914
 8783SOL    HW131196   2.043   4.800   8.990
 8783SOL    HW231197   2.031   4.812   8.828
 8784SOL     OW31198   3.209   4.783   8.682
 8784SOL    HW131199   3.233   4.720   8.608
 8784SOL    HW231200   3.119   4.823   8.664
 8785SOL     OW31201   3.164   4.579   7.757
 8785SOL    HW131202   3.078   4.548   7.799
 8785SOL    HW231203   3.160   4.565   7.658
 8786SOL     OW31204   3.621   5.471   8.602
 8786SOL    HW131205   3.682   5.501   8.529
 8786SOL    HW231206   3.583   5.382   8.580
 8787SOL     OW31207   3.114   5.455   8.576
 8787SOL    HW131208   3.198   5.460   8.522
 8787SOL    HW231209   3.091   5.359   8.594
 8788SOL     OW31210   1.945   4.982   8.470
 8788SOL    HW131211   1.940   4.981   8.570
 8788SOL    HW231212   1.862   4.941   8.432
 8789SOL     OW31213   2.550   5.386   9.164
 8789SOL    HW131214   2.494   5.467   9.173
 8789SOL    HW231215   2.602   5.390   9.078
 8790SOL     OW31216   3.588   3.859   7.971
 8790SOL    HW131217   3.661   3.842   7.904
 8790SOL    HW231218   3.557   3.772   8.009
 8791SOL     OW31219   3.250   5.297   7.925
 8791SOL    HW131220   3.317   5.309   7.851
 8791SOL    HW231221   3.210   5.386   7.948
 8792SOL     OW31222   1.992   5.518   9.299
 8792SOL    HW131223   1.951   5.444   9.352
 8792SOL    HW231224   2.056   5.569   9.357
 8793SOL     OW31225   3.142   4.651   8.120
 8793SOL    HW131226   3.202   4.570   8.122
 8793SOL    HW231227   3.182   4.720   8.060
 8794SOL     OW31228   2.692   4.997   8.870
 8794SOL    HW131229   2.687   5.030   8.965
 8794SOL    HW231230   2.606   5.016   8.824
 8795SOL     OW31231   2.534   5.340   7.602
 8795SOL    HW131232   2.543   5.350   7.503
 8795SOL    HW231233   2.494   5.251   7.623
 8796SOL     OW31234   3.512   5.444   8.842
 8796SOL    HW131235   3.565   5.454   8.758
 8796SOL    HW231236   3.485   5.534   8.876
 8797SOL     OW31237   3.703   3.899   8.411
 8797SOL    HW131238   3.742   3.814   8.375
 8797SOL    HW231239   3.605   3.901   8.392
 8798SOL     OW31240   2.125   4.050   8.168
 8798SOL    HW131241   2.046   4.101   8.134
 8798SOL    HW231242   2.116   4.035   8.266
 8799SOL     OW31243   3.056   5.336   7.479
 8799SOL    HW131244   3.062   5.243   7.516
 8799SOL    HW231245   2.997   5.336   7.399
 8800SOL     OW31246   2.684   4.726   8.820
 8800SOL    HW131247   2.724   4.725   8.728
 8800SOL    HW231248   2.694   4.818   8.860
 8801SOL     OW31249   2.778   4.634   7.739
 8801SOL    HW131250   2.841   4.672   7.671
 8801SOL    HW231251   2.818   4.551   7.778
 8802SOL     OW31252   3.366   5.331   7.492
 8802SOL    HW131253   3.274   5.368   7.499
 8802SOL    HW231254   3.404   5.351   7.402
 8803SOL     OW31255   2.234   5.012   8.938
 8803SOL    HW131256   2.221   5.105   8.904
 8803SOL    HW231257   2.150   4.960   8.925
 8804SOL     OW31258   3.476   5.016   8.737
 8804SOL    HW131259   3.536   5.019   8.817
 8804SOL    HW231260   3.401   5.080   8.750
 8805SOL     OW31261   2.901   4.822   8.144
 8805SOL    HW131262   2.831   4.775   8.198
 8805SOL    HW231263   2.960   4.754   8.101
 8806SOL     OW31264   2.876   3.960   8.419
 8806SOL    HW131265   2.868   3.924   8.326
 8806SOL    HW231266   2.874   3.884   8.484
 8807SOL     OW31267   2.452   5.211   7.939
 8807SOL    HW131268   2.494   5.153   7.869
 8807SOL    HW231269   2.408   5.290   7.895
 8808SOL     OW31270   3.571   4.109   8.829
 8808SOL    HW131271   3.644   4.178   8.833
 8808SOL    HW231272   3.599   4.034   8.770
 8809SOL     OW31273   2.117   5.072   7.738
 8809SOL    HW131274   2.021   5.073   7.711
 8809SOL    HW231275   2.129   5.125   7.822
 8810SOL     OW31276   1.967   4.737   9.174
 8810SOL    HW131277   1.890   4.704   9.228
 8810SOL    HW231278   2.052   4.707   9.216
 8811SOL     OW31279   2.534   3.927   8.937
 8811SOL    HW131280   2.624   3.911   8.897
 8811SOL    HW231281   2.542   3.932   9.036
 8812SOL     OW31282   1.937   4.069   7.481
 8812SOL    HW131283   1.845   4.041   7.452
 8812SOL    HW231284   1.968   4.146   7.425
 8813SOL     OW31285   3.302   4.580   8.846
 8813SOL    HW131286   3.245   4.632   8.783
 8813SOL    HW231287   3.398   4.592   8.822
 8814SOL     OW31288   1.934   3.890   7.766
 8814SOL    HW131289   1.917   3.973   7.712
 8814SOL    HW231290   2.024   3.853   7.744
 8815SOL     OW31291   3.045   5.059   7.567
 8815SOL    HW131292   2.946   5.048   7.569
 8815SOL    HW231293   3.079   5.074   7.660
 8816SOL     OW31294   2.475   4.566   8.879
 8816SOL    HW131295   2.531   4.647   8.862
 8816SOL    HW231296   2.534   4.486   8.882
 8817SOL     OW31297   3.355   5.491   8.407
 8817SOL    HW131298   3.388   5.555   8.338
 8817SOL    HW231299   3.421   5.485   8.482
 8818SOL     OW31300   2.578   4.289   9.156
 8818SOL    HW131301   2.597   4.354   9.230
 8818SOL    HW231302   2.638   4.209   9.165
 8819SOL     OW31303   3.312   4.944   9.081
 8819SOL    HW131304   3.303   4.934   9.180
 8819SOL    HW231305   3.408   4.937   9.055
 8820SOL     OW31306   2.252   5.465   9.008
 8820SOL    HW131307   2.161   5.506   9.006
 8820SOL    HW231308   2.245   5.371   9.040
 8821SOL     OW31309   3.536   4.607   8.702
 8821SOL    HW131310   3.509   4.518   8.665
 8821SOL    HW231311   3.537   4.675   8.629
 8822SOL     OW31312   3.087   4.049   7.897
 8822SOL    HW131313   3.152   3.975   7.886
 8822SOL    HW231314   3.107   4.099   7.981
 8823SOL     OW31315   2.456   4.469   8.100
 8823SOL    HW131316   2.506   4.554   8.081
 8823SOL    HW231317   2.368   4.471   8.052
 8824SOL     OW31318   3.639   4.066   9.090
 8824SOL    HW131319   3.622   4.097   8.996
 8824SOL    HW231320   3.555   4.029   9.128
 8825SOL     OW31321   3.592   4.658   8.965
 8825SOL    HW131322   3.630   4.749   8.980
 8825SOL    HW231323   3.584   4.641   8.866
 8826SOL     OW31324   2.721   5.098   7.464
 8826SOL    HW131325   2.675   5.113   7.552
 8826SOL    HW231326   2.765   5.183   7.434
 8827SOL     OW31327   2.523   5.514   8.401
 8827SOL    HW131328   2.477   5.602   8.388
 8827SOL    HW231329   2.622   5.526   8.394
 8828SOL     OW31330   2.721   4.680   8.309
 8828SOL    HW131331   2.775   4.611   8.357
 8828SOL    HW231332   2.689   4.749   8.375
 8829SOL     OW31333   2.945   4.708   7.535
 8829SOL    HW131334   2.922   4.761   7.453
 8829SOL    HW231335   3.026   4.652   7.516
 8830SOL     OW31336   3.723   5.293   8.299
 8830SOL    HW131337   3.652   5.281   8.229
 8830SOL    HW231338   3.724   5.214   8.359
 8831SOL     OW31339   2.083   5.038   9.292
 8831SOL    HW131340   2.018   4.965   9.271
 8831SOL    HW231341   2.087   5.052   9.390
 8832SOL     OW31342   1.941   4.964   8.101
 8832SOL    HW131343   1.940   4.917   8.189
 8832SOL    HW231344   2.023   4.936   8.050
 8833SOL     OW31345   2.534   5.115   9.072
 8833SOL    HW131346   2.456   5.065   9.110
 8833SOL    HW231347   2.531   5.210   9.103
 8834SOL     OW31348   3.686   3.916   8.675
 8834SOL    HW131349   3.682   3.826   8.719
 8834SOL    HW231350   3.689   3.905   8.576
 8835SOL     OW31351   2.290   4.148   7.968
 8835SOL    HW131352   2.320   4.076   7.906
 8835SOL    HW231353   2.251   4.108   8.051
 8836SOL     OW31354   3.567   5.211   8.552
 8836SOL    HW131355   3.474   5.186   8.525
 8836SOL    HW231356   3.593   5.161   8.634
 8837SOL     OW31357   2.179   4.271   8.728
 8837SOL    HW131358   2.217   4.212   8.800
 8837SOL    HW231359   2.219   4.245   8.640
 8838SOL     OW31360   2.674   5.310   8.135
 8838SOL    HW131361   2.706   5.320   8.041
 8838SOL    HW231362   2.595   5.248   8.137
 8839SOL     OW31363   3.286   3.938   8.560
 8839SOL    HW131364   3.338   3.873   8.615
 8839SOL    HW231365   3.237   4.001   8.621
 8840SOL     OW31366   2.863   3.758   8.602
 8840SOL    HW131367   2.800   3.686   8.571
 8840SOL    HW231368   2.956   3.722   8.602
 8841SOL     OW31369   2.632   5.054   7.749
 8841SOL    HW131370   2.586   4.967   7.766
 8841SOL    HW231371   2.723   5.051   7.790
 8842SOL     OW31372   2.480   5.291   8.732
 8842SOL    HW131373   2.475   5.373   8.789
 8842SOL    HW231374   2.569   5.288   8.687
 8843SOL     OW31375   3.214   3.776   7.616
 8843SOL    HW131376   3.249   3.735   7.532
 8843SOL    HW231377   3.124   3.738   7.636
 8844SOL     OW31378   3.162   4.177   8.139
 8844SOL    HW131379   3.103   4.257   8.143
 8844SOL    HW231380   3.177   4.142   8.232
 8845SOL     OW31381   1.901   4.801   7.748
 8845SOL    HW131382   2.000   4.790   7.739
 8845SOL    HW231383   1.861   4.715   7.780
 8846SOL     OW31384   2.737   5.370   7.785
 8846SOL    HW131385   2.660   5.335   7.731
 8846SOL    HW231386   2.705   5.441   7.847
 8847SOL     OW31387   2.092   4.352   9.423
 8847SOL    HW131388   1.999   4.350   9.460
 8847SOL    HW231389   2.093   4.313   9.331
 8848SOL     OW31390   3.617   4.331   9.541
 8848SOL    HW131391   3.605   4.318   9.442
 8848SOL    HW231392   3.587   4.250   9.590
 8849SOL     OW31393   2.093   5.437   9.793
 8849SOL    HW131394   2.127   5.514   9.847
 8849SOL    HW231395   2.137   5.437   9.703
 8850SOL     OW31396   2.092   5.158   9.848
 8850SOL    HW131397   2.066   5.254   9.848
 8850SOL    HW231398   2.021   5.104   9.893
 8851SOL     OW31399   2.468   4.688   9.433
 8851SOL    HW131400   2.475   4.772   9.379
 8851SOL    HW231401   2.514   4.701   9.521
 8852SOL     OW31402   1.984   4.367   9.873
 8852SOL    HW131403   1.939   4.279   9.890
 8852SOL    HW231404   1.983   4.421   9.957
 8853SOL     OW31405   3.704   5.491   9.669
 8853SOL    HW131406   3.758   5.462   9.749
 8853SOL    HW231407   3.734   5.581   9.640
 8854SOL     OW31408   1.889   5.320   9.427
 8854SOL    HW131409   1.870   5.224   9.448
 8854SOL    HW231410   1.856   5.378   9.502
 8855SOL     OW31411   3.551   4.646   9.922
 8855SOL    HW131412   3.646   4.617   9.930
 8855SOL    HW231413   3.543   4.711   9.847
 8856SOL     OW31414   3.503   4.832   9.742
 8856SOL    HW131415   3.589   4.834   9.690
 8856SOL    HW231416   3.517   4.879   9.830
 8857SOL     OW31417   2.671   3.728   9.812
 8857SOL    HW131418   2.711   3.819   9.803
 8857SOL    HW231419   2.571   3.736   9.818
 8858SOL     OW31420   3.387   4.723   9.500
 8858SOL    HW131421   3.324   4.647   9.513
 8858SOL    HW231422   3.435   4.741   9.586
 8859SOL     OW31423   2.460   4.453   9.580
 8859SOL    HW131424   2.484   4.522   9.512
 8859SOL    HW231425   2.382   4.486   9.634
 8860SOL     OW31426   3.438   5.386   9.617
 8860SOL    HW131427   3.527   5.432   9.620
 8860SOL    HW231428   3.417   5.362   9.522
 8861SOL     OW31429   2.903   4.425   9.739
 8861SOL    HW131430   2.929   4.421   9.835
 8861SOL    HW231431   2.818   4.374   9.725
 8862SOL     OW31432   1.938   4.535  10.099
 8862SOL    HW131433   2.037   4.523  10.108
 8862SOL    HW231434   1.914   4.630  10.120
 8863SOL     OW31435   2.727   4.072   9.505
 8863SOL    HW131436   2.786   4.135   9.456
 8863SOL    HW231437   2.746   3.978   9.476
 8864SOL     OW31438   3.224   4.868   9.855
 8864SOL    HW131439   3.307   4.839   9.807
 8864SOL    HW231440   3.175   4.935   9.799
 8865SOL     OW31441   2.870   5.180   9.787
 8865SOL    HW131442   2.824   5.252   9.735
 8865SOL    HW231443   2.866   5.200   9.885
 8866SOL     OW31444   2.213   5.525  10.163
 8866SOL    HW131445   2.263   5.439  10.169
 8866SOL    HW231446   2.278   5.602  10.160
 8867SOL     OW31447   2.183   4.667   9.552
 8867SOL    HW131448   2.265   4.706   9.510
 8867SOL    HW231449   2.156   4.585   9.503
 8868SOL     OW31450   3.494   5.101   9.391
 8868SOL    HW131451   3.462   5.195   9.381
 8868SOL    HW231452   3.418   5.038   9.379
 8869SOL     OW31453   2.326   5.467   9.633
 8869SOL    HW131454   2.359   5.506   9.719
 8869SOL    HW231455   2.402   5.460   9.568
 8870SOL     OW31456   3.262   3.831   9.736
 8870SOL    HW131457   3.238   3.794   9.646
 8870SOL    HW231458   3.361   3.847   9.740
 8871SOL     OW31459   2.244   4.424   9.790
 8871SOL    HW131460   2.289   4.334   9.787
 8871SOL    HW231461   2.150   4.413   9.823
 8872SOL     OW31462   2.476   3.846   9.427
 8872SOL    HW131463   2.574   3.824   9.434
 8872SOL    HW231464   2.445   3.829   9.334
 8873SOL     OW31465   2.401   3.788   9.822
 8873SOL    HW131466   2.320   3.789   9.880
 8873SOL    HW231467   2.404   3.871   9.767
 8874SOL     OW31468   3.296   4.912   9.351
 8874SOL    HW131469   3.328   4.836   9.408
 8874SOL    HW231470   3.204   4.939   9.381
 8875SOL     OW31471   2.159   3.759   9.481
 8875SOL    HW131472   2.208   3.843   9.460
 8875SOL    HW231473   2.221   3.694   9.526
 8876SOL     OW31474   2.797   3.960   9.790
 8876SOL    HW131475   2.749   4.001   9.712
 8876SOL    HW231476   2.896   3.958   9.771
 8877SOL     OW31477   2.894   4.273   9.326
 8877SOL    HW131478   2.853   4.355   9.287
 8877SOL    HW231479   2.958   4.299   9.399
 8878SOL     OW31480   2.728   4.178   9.952
 8878SOL    HW131481   2.696   4.250   9.890
 8878SOL    HW231482   2.752   4.097   9.899
 8879SOL     OW31483   3.719   4.557   9.687
 8879SOL    HW131484   3.761   4.493   9.751
 8879SOL    HW231485   3.681   4.506   9.609
 8880SOL     OW31486   2.350   5.109   9.484
 8880SOL    HW131487   2.263   5.094   9.531
 8880SOL    HW231488   2.333   5.135   9.389
 8881SOL     OW31489   3.252   4.299   9.388
 8881SOL    HW131490   3.198   4.278   9.469
 8881SOL    HW231491   3.343   4.258   9.397
 8882SOL     OW31492   2.389   3.980   9.638
 8882SOL    HW131493   2.416   3.921   9.563
 8882SOL    HW231494   2.389   4.075   9.607
 8883SOL     OW31495   2.567   4.774   9.678
 8883SOL    HW131496   2.553   4.781   9.777
 8883SOL    HW231497   2.651   4.723   9.660
 8884SOL     OW31498   2.229   4.824   9.811
 8884SOL    HW131499   2.222   4.907   9.755
 8884SOL    HW231500   2.233   4.744   9.751
 8885SOL     OW31501   3.114   5.072   9.698
 8885SOL    HW131502   3.164   5.149   9.738
 8885SOL    HW231503   3.019   5.074   9.730
 8886SOL     OW31504   3.444   4.363   9.782
 8886SOL    HW131505   3.413   4.424   9.855
 8886SOL    HW231506   3.494   4.415   9.713
 8887SOL     OW31507   3.071   4.249   9.585
 8887SOL    HW131508   3.084   4.165   9.639
 8887SOL    HW231509   3.042   4.323   9.645
 8888SOL     OW31510   2.169   3.787   9.928
 8888SOL    HW131511   2.158   3.881   9.961
 8888SOL    HW231512   2.164   3.724  10.005
 8889SOL     OW31513   3.484   4.091   9.684
 8889SOL    HW131514   3.486   4.015   9.748
 8889SOL    HW231515   3.436   4.168   9.724
 8890SOL     OW31516   3.402   3.998   9.435
 8890SOL    HW131517   3.341   3.923   9.458
 8890SOL    HW231518   3.424   4.050   9.518
 8891SOL     OW31519   3.165   4.562   9.352
 8891SOL    HW131520   3.199   4.469   9.367
 8891SOL    HW231521   3.183   4.589   9.257
 8892SOL     OW31522   1.870   5.050   9.510
 8892SOL    HW131523   1.777   5.071   9.479
 8892SOL    HW231524   1.880   4.951   9.523
 8893SOL     OW31525   2.677   4.296   9.635
 8893SOL    HW131526   2.684   4.207   9.589
 8893SOL    HW231527   2.583   4.330   9.627
 8894SOL     OW31528   2.335   4.224   9.501
 8894SOL    HW131529   2.396   4.304   9.505
 8894SOL    HW231530   2.240   4.255   9.508
 8895SOL     OW31531   3.164   4.579   9.619
 8895SOL    HW131532   3.078   4.548   9.661
 8895SOL    HW231533   3.160   4.565   9.520
 8896SOL     OW31534   3.588   3.859   9.833
 8896SOL    HW131535   3.661   3.842   9.766
 8896SOL    HW231536   3.557   3.772   9.871
 8897SOL     OW31537   3.250   5.297   9.787
 8897SOL    HW131538   3.317   5.309   9.713
 8897SOL    HW231539   3.210   5.386   9.810
 8898SOL     OW31540   2.534   5.340   9.464
 8898SOL    HW131541   2.543   5.350   9.365
 8898SOL    HW231542   2.494   5.251   9.485
 8899SOL     OW31543   3.056   5.336   9.341
 8899SOL    HW131544   3.062   5.243   9.378
 8899SOL    HW231545   2.997   5.336   9.261
 8900SOL     OW31546   2.778   4.634   9.601
 8900SOL    HW131547   2.841   4.672   9.533
 8900SOL    HW231548   2.818   4.551   9.640
 8901SOL     OW31549   3.366   5.331   9.354
 8901SOL    HW131550   3.274   5.368   9.361
 8901SOL    HW231551   3.404   5.351   9.264
 8902SOL     OW31552   2.452   5.211   9.801
 8902SOL    HW131553   2.494   5.153   9.731
 8902SOL    HW231554   2.408   5.290   9.757
 8903SOL     OW31555   2.117   5.072   9.600
 8903SOL    HW131556   2.021   5.073   9.573
 8903SOL    HW231557   2.129   5.125   9.684
 8904SOL     OW31558   1.937   4.069   9.343
 8904SOL    HW131559   1.845   4.041   9.314
 8904SOL    HW231560   1.968   4.146   9.287
 8905SOL     OW31561   1.934   3.890   9.628
 8905SOL    HW131562   1.917   3.973   9.574
 8905SOL    HW231563   2.024   3.853   9.606
 8906SOL     OW31564   3.045   5.059   9.429
 8906SOL    HW131565   2.946   5.048   9.431
 8906SOL    HW231566   3.079   5.074   9.522
 8907SOL     OW31567   3.087   4.049   9.759
 8907SOL    HW131568   3.152   3.975   9.748
 8907SOL    HW231569   3.107   4.099   9.843
 8908SOL     OW31570   2.721   5.098   9.326
 8908SOL    HW131571   2.675   5.113   9.414
 8908SOL    HW231572   2.765   5.183   9.296
 8909SOL     OW31573   2.945   4.708   9.397
 8909SOL    HW131574   2.922   4.761   9.315
 8909SOL    HW231575   3.026   4.652   9.378
 8910SOL     OW31576   1.941   4.964   9.963
 8910SOL    HW131577   1.940   4.917  10.051
 8910SOL    HW231578   2.023   4.936   9.912
 8911SOL     OW31579   2.290   4.148   9.830
 8911SOL    HW131580   2.320   4.076   9.768
 8911SOL    HW231581   2.251   4.108   9.913
 8912SOL     OW31582   2.632   5.054   9.611
 8912SOL    HW131583   2.586   4.967   9.628
 8912SOL    HW231584   2.723   5.051   9.652
 8913SOL     OW31585   3.214   3.776   9.478
 8913SOL    HW131586   3.249   3.735   9.394
 8913SOL    HW231587   3.124   3.738   9.498
 8914SOL     OW31588   1.901   4.801   9.610
 8914SOL    HW131589   2.000   4.790   9.601
 8914SOL    HW231590   1.861   4.715   9.642
 8915SOL     OW31591   2.737   5.370   9.647
 8915SOL    HW131592   2.660   5.335   9.593
 8915SOL    HW231593   2.705   5.441   9.709
 8916SOL     OW31594   2.092   6.214   0.113
 8916SOL    HW131595   1.999   6.212   0.150
 8916SOL    HW231596   2.093   6.175   0.021
 8917SOL     OW31597   2.087   5.861   0.996
 8917SOL    HW131598   2.122   5.844   1.088
 8917SOL    HW231599   1.999   5.816   0.984
 8918SOL     OW31600   1.881   5.954   0.647
 8918SOL    HW131601   1.799   5.997   0.686
 8918SOL    HW231602   1.853   5.881   0.584
 8919SOL     OW31603   2.431   6.861   1.165
 8919SOL    HW131604   2.338   6.854   1.128
 8919SOL    HW231605   2.442   6.950   1.209
 8920SOL     OW31606   3.417   7.097   0.703
 8920SOL    HW131607   3.360   7.081   0.784
 8920SOL    HW231608   3.358   7.107   0.623
 8921SOL     OW31609   2.997   6.289   0.717
 8921SOL    HW131610   3.054   6.367   0.692
 8921SOL    HW231611   2.937   6.315   0.793
 8922SOL     OW31612   3.617   6.193   0.231
 8922SOL    HW131613   3.605   6.180   0.132
 8922SOL    HW231614   3.587   6.112   0.280
 8923SOL     OW31615   2.630   6.730   1.023
 8923SOL    HW131616   2.552   6.747   1.083
 8923SOL    HW231617   2.664   6.817   0.987
 8924SOL     OW31618   2.712   6.384   1.823
 8924SOL    HW131619   2.708   6.460   1.888
 8924SOL    HW231620   2.734   6.420   1.732
 8925SOL     OW31621   2.547   6.598   0.665
 8925SOL    HW131622   2.616   6.582   0.735
 8925SOL    HW231623   2.474   6.655   0.703
 8926SOL     OW31624   2.548   6.747   1.803
 8926SOL    HW131625   2.608   6.826   1.817
 8926SOL    HW231626   2.462   6.778   1.762
 8927SOL     OW31627   2.197   7.021   1.061
 8927SOL    HW131628   2.119   6.990   1.008
 8927SOL    HW231629   2.255   7.079   1.004
 8928SOL     OW31630   3.322   7.091   1.339
 8928SOL    HW131631   3.346   7.185   1.365
 8928SOL    HW231632   3.306   7.037   1.421
 8929SOL     OW31633   2.300   5.978   1.499
 8929SOL    HW131634   2.382   5.922   1.508
 8929SOL    HW231635   2.219   5.920   1.503
 8930SOL     OW31636   3.465   6.033   0.737
 8930SOL    HW131637   3.391   6.079   0.687
 8930SOL    HW231638   3.516   6.101   0.790
 8931SOL     OW31639   2.093   7.299   0.483
 8931SOL    HW131640   2.127   7.376   0.537
 8931SOL    HW231641   2.137   7.299   0.393
 8932SOL     OW31642   2.989   6.927   1.690
 8932SOL    HW131643   3.036   6.927   1.778
 8932SOL    HW231644   2.941   6.840   1.679
 8933SOL     OW31645   2.092   7.020   0.538
 8933SOL    HW131646   2.066   7.116   0.538
 8933SOL    HW231647   2.021   6.966   0.583
 8934SOL     OW31648   2.102   6.677   0.886
 8934SOL    HW131649   2.116   6.593   0.938
 8934SOL    HW231650   2.047   6.741   0.941
 8935SOL     OW31651   2.482   7.372   1.439
 8935SOL    HW131652   2.390   7.355   1.474
 8935SOL    HW231653   2.510   7.464   1.465
 8936SOL     OW31654   2.468   6.550   0.123
 8936SOL    HW131655   2.475   6.634   0.069
 8936SOL    HW231656   2.514   6.563   0.211
 8937SOL     OW31657   3.456   5.700   1.480
 8937SOL    HW131658   3.438   5.767   1.408
 8937SOL    HW231659   3.453   5.746   1.569
 8938SOL     OW31660   1.984   6.229   0.563
 8938SOL    HW131661   1.939   6.141   0.580
 8938SOL    HW231662   1.983   6.283   0.647
 8939SOL     OW31663   3.704   7.353   0.359
 8939SOL    HW131664   3.758   7.324   0.439
 8939SOL    HW231665   3.734   7.443   0.330
 8940SOL     OW31666   1.889   7.182   0.117
 8940SOL    HW131667   1.870   7.086   0.138
 8940SOL    HW231668   1.856   7.240   0.192
 8941SOL     OW31669   3.551   6.508   0.612
 8941SOL    HW131670   3.646   6.479   0.620
 8941SOL    HW231671   3.543   6.573   0.537
 8942SOL     OW31672   3.503   6.694   0.432
 8942SOL    HW131673   3.589   6.696   0.380
 8942SOL    HW231674   3.517   6.741   0.520
 8943SOL     OW31675   1.975   6.323   1.597
 8943SOL    HW131676   2.063   6.310   1.642
 8943SOL    HW231677   1.962   6.420   1.575
 8944SOL     OW31678   2.475   6.951   0.726
 8944SOL    HW131679   2.426   6.864   0.735
 8944SOL    HW231680   2.452   6.994   0.639
 8945SOL     OW31681   3.155   6.814   1.423
 8945SOL    HW131682   3.192   6.741   1.365
 8945SOL    HW231683   3.207   6.819   1.508
 8946SOL     OW31684   2.671   5.590   0.502
 8946SOL    HW131685   2.711   5.681   0.493
 8946SOL    HW231686   2.571   5.598   0.508
 8947SOL     OW31687   2.059   6.562   1.264
 8947SOL    HW131688   2.148   6.517   1.250
 8947SOL    HW231689   1.986   6.497   1.245
 8948SOL     OW31690   3.387   6.585   0.190
 8948SOL    HW131691   3.324   6.509   0.203
 8948SOL    HW231692   3.435   6.603   0.276
 8949SOL     OW31693   3.049   7.378   1.616
 8949SOL    HW131694   3.073   7.438   1.540
 8949SOL    HW231695   3.056   7.283   1.586
 8950SOL     OW31696   2.179   5.837   1.801
 8950SOL    HW131697   2.250   5.908   1.807
 8950SOL    HW231698   2.091   5.876   1.829
 8951SOL     OW31699   3.328   7.003   0.953
 8951SOL    HW131700   3.269   7.009   1.033
 8951SOL    HW231701   3.313   6.915   0.907
 8952SOL     OW31702   3.529   7.300   0.572
 8952SOL    HW131703   3.488   7.277   0.484
 8952SOL    HW231704   3.511   7.226   0.637
 8953SOL     OW31705   2.460   6.315   0.270
 8953SOL    HW131706   2.484   6.384   0.202
 8953SOL    HW231707   2.382   6.348   0.324
 8954SOL     OW31708   3.143   5.931   0.944
 8954SOL    HW131709   3.057   5.881   0.931
 8954SOL    HW231710   3.205   5.877   1.000
 8955SOL     OW31711   3.438   7.248   0.307
 8955SOL    HW131712   3.527   7.294   0.310
 8955SOL    HW231713   3.417   7.224   0.212
 8956SOL     OW31714   2.669   6.191   1.465
 8956SOL    HW131715   2.622   6.188   1.554
 8956SOL    HW231716   2.618   6.136   1.399
 8957SOL     OW31717   3.256   6.055   1.674
 8957SOL    HW131718   3.236   6.098   1.762
 8957SOL    HW231719   3.334   5.993   1.683
 8958SOL     OW31720   2.835   6.476   1.572
 8958SOL    HW131721   2.881   6.392   1.543
 8958SOL    HW231722   2.779   6.510   1.497
 8959SOL     OW31723   2.853   5.996   1.242
 8959SOL    HW131724   2.776   6.030   1.296
 8959SOL    HW231725   2.819   5.945   1.163
 8960SOL     OW31726   2.903   6.287   0.429
 8960SOL    HW131727   2.929   6.283   0.525
 8960SOL    HW231728   2.818   6.236   0.415
 8961SOL     OW31729   1.938   6.397   0.789
 8961SOL    HW131730   2.037   6.385   0.798
 8961SOL    HW231731   1.914   6.492   0.810
 8962SOL     OW31732   1.992   7.407   1.571
 8962SOL    HW131733   1.982   7.392   1.670
 8962SOL    HW231734   1.906   7.443   1.535
 8963SOL     OW31735   2.727   5.934   0.195
 8963SOL    HW131736   2.786   5.997   0.146
 8963SOL    HW231737   2.746   5.840   0.166
 8964SOL     OW31738   3.581   6.171   1.831
 8964SOL    HW131739   3.555   6.260   1.795
 8964SOL    HW231740   3.579   6.103   1.758
 8965SOL     OW31741   3.224   6.730   0.545
 8965SOL    HW131742   3.307   6.701   0.497
 8965SOL    HW231743   3.175   6.797   0.489
 8966SOL     OW31744   2.412   5.782   0.885
 8966SOL    HW131745   2.407   5.777   0.985
 8966SOL    HW231746   2.414   5.878   0.856
 8967SOL     OW31747   2.870   7.042   0.477
 8967SOL    HW131748   2.824   7.114   0.425
 8967SOL    HW231749   2.866   7.062   0.575
 8968SOL     OW31750   2.213   7.387   0.853
 8968SOL    HW131751   2.263   7.301   0.859
 8968SOL    HW231752   2.278   7.464   0.850
 8969SOL     OW31753   3.657   6.652   0.873
 8969SOL    HW131754   3.595   6.637   0.797
 8969SOL    HW231755   3.605   6.663   0.958
 8970SOL     OW31756   3.089   7.136   1.506
 8970SOL    HW131757   3.095   7.059   1.570
 8970SOL    HW231758   3.037   7.110   1.426
 8971SOL     OW31759   2.183   6.529   0.242
 8971SOL    HW131760   2.265   6.568   0.200
 8971SOL    HW231761   2.156   6.447   0.193
 8972SOL     OW31762   3.320   6.321   0.728
 8972SOL    HW131763   3.315   6.256   0.803
 8972SOL    HW231764   3.400   6.380   0.741
 8973SOL     OW31765   2.323   6.852   1.727
 8973SOL    HW131766   2.273   6.853   1.641
 8973SOL    HW231767   2.260   6.834   1.803
 8974SOL     OW31768   2.973   7.362   0.237
 8974SOL    HW131769   2.913   7.300   0.287
 8974SOL    HW231770   3.004   7.318   0.152
 8975SOL     OW31771   2.064   5.871   1.498
 8975SOL    HW131772   1.984   5.931   1.485
 8975SOL    HW231773   2.054   5.822   1.584
 8976SOL     OW31774   3.494   6.963   0.081
 8976SOL    HW131775   3.462   7.057   0.071
 8976SOL    HW231776   3.418   6.900   0.069
 8977SOL     OW31777   3.262   5.693   0.426
 8977SOL    HW131778   3.238   5.656   0.336
 8977SOL    HW231779   3.361   5.709   0.430
 8978SOL     OW31780   2.111   7.371   1.241
 8978SOL    HW131781   2.168   7.306   1.291
 8978SOL    HW231782   2.095   7.338   1.148
 8979SOL     OW31783   2.802   7.284   0.904
 8979SOL    HW131784   2.882   7.227   0.925
 8979SOL    HW231785   2.753   7.244   0.827
 8980SOL     OW31786   2.244   6.286   0.480
 8980SOL    HW131787   2.289   6.196   0.477
 8980SOL    HW231788   2.150   6.275   0.513
 8981SOL     OW31789   3.409   5.808   1.729
 8981SOL    HW131790   3.404   5.845   1.821
 8981SOL    HW231791   3.337   5.739   1.717
 8982SOL     OW31792   2.476   5.708   0.117
 8982SOL    HW131793   2.574   5.686   0.124
 8982SOL    HW231794   2.445   5.691   0.024
 8983SOL     OW31795   2.643   5.850   1.749
 8983SOL    HW131796   2.710   5.789   1.792
 8983SOL    HW231797   2.570   5.869   1.814
 8984SOL     OW31798   2.750   7.100   1.195
 8984SOL    HW131799   2.727   7.075   1.101
 8984SOL    HW231800   2.811   7.031   1.234
 8985SOL     OW31801   3.213   6.176   1.433
 8985SOL    HW131802   3.241   6.133   1.518
 8985SOL    HW231803   3.238   6.272   1.434
 8986SOL     OW31804   2.665   6.988   0.924
 8986SOL    HW131805   2.755   7.002   0.882
 8986SOL    HW231806   2.594   6.990   0.853
 8987SOL     OW31807   2.784   6.089   0.899
 8987SOL    HW131808   2.759   6.080   0.803
 8987SOL    HW231809   2.832   6.007   0.930
 8988SOL     OW31810   2.401   5.650   0.512
 8988SOL    HW131811   2.320   5.651   0.570
 8988SOL    HW231812   2.404   5.733   0.457
 8989SOL     OW31813   3.296   6.774   0.041
 8989SOL    HW131814   3.328   6.698   0.098
 8989SOL    HW231815   3.204   6.801   0.071
 8990SOL     OW31816   2.797   5.822   0.480
 8990SOL    HW131817   2.749   5.863   0.402
 8990SOL    HW231818   2.896   5.820   0.461
 8991SOL     OW31819   2.938   6.269   1.464
 8991SOL    HW131820   2.858   6.208   1.467
 8991SOL    HW231821   3.019   6.216   1.440
 8992SOL     OW31822   3.089   7.156   0.793
 8992SOL    HW131823   3.110   7.230   0.728
 8992SOL    HW231824   3.157   7.156   0.866
 8993SOL     OW31825   2.321   6.738   0.741
 8993SOL    HW131826   2.250   6.711   0.806
 8993SOL    HW231827   2.295   6.710   0.648
 8994SOL     OW31828   3.133   7.383   0.591
 8994SOL    HW131829   3.177   7.447   0.527
 8994SOL    HW231830   3.083   7.435   0.661
 8995SOL     OW31831   2.894   6.135   0.016
 8995SOL    HW131832   2.853   6.217  -0.023
 8995SOL    HW231833   2.958   6.161   0.089
 8996SOL     OW31834   1.940   6.142   1.386
 8996SOL    HW131835   2.032   6.141   1.345
 8996SOL    HW231836   1.934   6.216   1.453
 8997SOL     OW31837   2.423   5.808   1.147
 8997SOL    HW131838   2.461   5.724   1.184
 8997SOL    HW231839   2.335   5.827   1.191
 8998SOL     OW31840   2.728   6.040   0.642
 8998SOL    HW131841   2.696   6.112   0.580
 8998SOL    HW231842   2.752   5.959   0.589
 8999SOL     OW31843   2.879   5.625   0.753
 8999SOL    HW131844   2.807   5.630   0.684
 8999SOL    HW231845   2.855   5.556   0.822
 9000SOL     OW31846   3.291   6.759   0.867
 9000SOL    HW131847   3.236   6.675   0.860
 9000SOL    HW231848   3.317   6.788   0.775
 9001SOL     OW31849   3.328   6.176   0.992
 9001SOL    HW131850   3.298   6.081   0.999
 9001SOL    HW231851   3.401   6.192   1.058
 9002SOL     OW31852   3.719   6.419   0.377
 9002SOL    HW131853   3.761   6.355   0.441
 9002SOL    HW231854   3.681   6.368   0.299
 9003SOL     OW31855   2.350   6.971   0.174
 9003SOL    HW131856   2.263   6.956   0.221
 9003SOL    HW231857   2.333   6.997   0.079
 9004SOL     OW31858   3.526   6.866   0.657
 9004SOL    HW131859   3.625   6.874   0.671
 9004SOL    HW231860   3.481   6.950   0.688
 9005SOL     OW31861   3.252   6.161   0.078
 9005SOL    HW131862   3.198   6.140   0.159
 9005SOL    HW231863   3.343   6.120   0.087
 9006SOL     OW31864   2.389   5.842   0.328
 9006SOL    HW131865   2.416   5.783   0.253
 9006SOL    HW231866   2.389   5.937   0.297
 9007SOL     OW31867   3.616   6.809   1.588
 9007SOL    HW131868   3.707   6.770   1.575
 9007SOL    HW231869   3.624   6.905   1.612
 9008SOL     OW31870   2.926   6.933   1.340
 9008SOL    HW131871   2.846   6.910   1.395
 9008SOL    HW231872   3.009   6.907   1.389
 9009SOL     OW31873   3.454   7.215   1.625
 9009SOL    HW131874   3.481   7.249   1.535
 9009SOL    HW231875   3.533   7.177   1.671
 9010SOL     OW31876   2.973   6.781   1.100
 9010SOL    HW131877   2.933   6.825   1.181
 9010SOL    HW231878   2.932   6.818   1.017
 9011SOL     OW31879   3.500   6.685   1.079
 9011SOL    HW131880   3.505   6.766   1.138
 9011SOL    HW231881   3.414   6.687   1.028
 9012SOL     OW31882   2.777   5.675   1.402
 9012SOL    HW131883   2.802   5.655   1.307
 9012SOL    HW231884   2.849   5.731   1.444
 9013SOL     OW31885   2.842   6.702   1.719
 9013SOL    HW131886   2.743   6.708   1.729
 9013SOL    HW231887   2.865   6.622   1.663
 9014SOL     OW31888   2.567   6.636   0.368
 9014SOL    HW131889   2.553   6.643   0.467
 9014SOL    HW231890   2.651   6.585   0.350
 9015SOL     OW31891   2.272   6.399   1.251
 9015SOL    HW131892   2.358   6.411   1.301
 9015SOL    HW231893   2.230   6.312   1.278
 9016SOL     OW31894   3.136   5.972   1.262
 9016SOL    HW131895   3.157   6.046   1.326
 9016SOL    HW231896   3.047   5.989   1.219
 9017SOL     OW31897   1.926   7.150   1.331
 9017SOL    HW131898   1.880   7.232   1.297
 9017SOL    HW231899   2.024   7.169   1.340
 9018SOL     OW31900   2.229   6.686   0.501
 9018SOL    HW131901   2.222   6.769   0.445
 9018SOL    HW231902   2.233   6.606   0.441
 9019SOL     OW31903   2.428   6.123   0.865
 9019SOL    HW131904   2.440   6.189   0.791
 9019SOL    HW231905   2.474   6.157   0.948
 9020SOL     OW31906   3.114   6.934   0.388
 9020SOL    HW131907   3.164   7.011   0.428
 9020SOL    HW231908   3.019   6.936   0.420
 9021SOL     OW31909   3.134   7.031   1.142
 9021SOL    HW131910   3.181   7.044   1.229
 9021SOL    HW231911   3.068   6.957   1.151
 9022SOL     OW31912   3.444   6.225   0.472
 9022SOL    HW131913   3.413   6.286   0.545
 9022SOL    HW231914   3.494   6.277   0.403
 9023SOL     OW31915   2.216   7.096   1.329
 9023SOL    HW131916   2.195   7.052   1.242
 9023SOL    HW231917   2.313   7.122   1.332
 9024SOL     OW31918   2.264   6.337   1.598
 9024SOL    HW131919   2.332   6.392   1.551
 9024SOL    HW231920   2.304   6.249   1.625
 9025SOL     OW31921   3.449   6.365   1.670
 9025SOL    HW131922   3.357   6.403   1.665
 9025SOL    HW231923   3.509   6.412   1.605
 9026SOL     OW31924   2.875   5.691   1.770
 9026SOL    HW131925   2.881   5.776   1.718
 9026SOL    HW231926   2.907   5.615   1.713
 9027SOL     OW31927   2.366   5.636   1.740
 9027SOL    HW131928   2.324   5.579   1.670
 9027SOL    HW231929   2.300   5.705   1.772
 9028SOL     OW31930   2.435   6.456   1.029
 9028SOL    HW131931   2.479   6.545   1.020
 9028SOL    HW231932   2.372   6.456   1.106
 9029SOL     OW31933   3.222   6.448   1.045
 9029SOL    HW131934   3.147   6.448   0.979
 9029SOL    HW231935   3.259   6.356   1.054
 9030SOL     OW31936   3.071   6.111   0.275
 9030SOL    HW131937   3.084   6.027   0.329
 9030SOL    HW231938   3.042   6.185   0.335
 9031SOL     OW31939   2.169   5.799   1.231
 9031SOL    HW131940   2.146   5.836   1.321
 9031SOL    HW231941   2.139   5.704   1.225
 9032SOL     OW31942   2.594   6.220   1.064
 9032SOL    HW131943   2.653   6.194   0.988
 9032SOL    HW231944   2.566   6.316   1.053
 9033SOL     OW31945   3.590   6.521   1.854
 9033SOL    HW131946   3.544   6.514   1.765
 9033SOL    HW231947   3.528   6.565   1.920
 9034SOL     OW31948   2.169   5.649   0.618
 9034SOL    HW131949   2.158   5.743   0.651
 9034SOL    HW231950   2.164   5.586   0.695
 9035SOL     OW31951   3.484   5.953   0.374
 9035SOL    HW131952   3.486   5.877   0.438
 9035SOL    HW231953   3.436   6.030   0.414
 9036SOL     OW31954   2.885   6.352   0.966
 9036SOL    HW131955   2.900   6.373   1.062
 9036SOL    HW231956   2.855   6.257   0.957
 9037SOL     OW31957   2.842   7.159   1.700
 9037SOL    HW131958   2.822   7.203   1.612
 9037SOL    HW231959   2.881   7.068   1.684
 9038SOL     OW31960   3.721   7.104   1.605
 9038SOL    HW131961   3.735   7.131   1.510
 9038SOL    HW231962   3.804   7.126   1.658
 9039SOL     OW31963   2.212   6.484   1.804
 9039SOL    HW131964   2.288   6.528   1.852
 9039SOL    HW231965   2.247   6.437   1.722
 9040SOL     OW31966   3.402   5.860   0.125
 9040SOL    HW131967   3.341   5.785   0.148
 9040SOL    HW231968   3.424   5.912   0.208
 9041SOL     OW31969   2.930   6.919   0.849
 9041SOL    HW131970   2.937   6.835   0.794
 9041SOL    HW231971   2.992   6.988   0.813
 9042SOL     OW31972   2.181   6.396   0.949
 9042SOL    HW131973   2.274   6.432   0.954
 9042SOL    HW231974   2.175   6.311   1.001
 9043SOL     OW31975   2.201   6.095   1.006
 9043SOL    HW131976   2.149   6.012   0.989
 9043SOL    HW231977   2.278   6.100   0.942
 9044SOL     OW31978   3.000   5.966   1.678
 9044SOL    HW131979   2.955   6.029   1.742
 9044SOL    HW231980   3.093   5.997   1.661
 9045SOL     OW31981   3.022   5.793   1.477
 9045SOL    HW131982   3.022   5.857   1.554
 9045SOL    HW231983   3.050   5.841   1.394
 9046SOL     OW31984   1.870   6.912   0.200
 9046SOL    HW131985   1.777   6.933   0.169
 9046SOL    HW231986   1.880   6.813   0.213
 9047SOL     OW31987   1.950   7.387   0.927
 9047SOL    HW131988   1.908   7.301   0.900
 9047SOL    HW231989   2.044   7.390   0.893
 9048SOL     OW31990   2.366   7.154   0.910
 9048SOL    HW131991   2.432   7.228   0.919
 9048SOL    HW231992   2.410   7.075   0.868
 9049SOL     OW31993   1.902   6.130   1.114
 9049SOL    HW131994   1.987   6.097   1.073
 9049SOL    HW231995   1.915   6.145   1.212
 9050SOL     OW31996   3.231   6.536   1.660
 9050SOL    HW131997   3.270   6.625   1.680
 9050SOL    HW231998   3.241   6.516   1.563
 9051SOL     OW31999   2.677   6.158   0.325
 9051SOL    HW132000   2.684   6.069   0.279
 9051SOL    HW232001   2.583   6.192   0.317
 9052SOL     OW32002   3.519   6.190   1.206
 9052SOL    HW132003   3.481   6.121   1.268
 9052SOL    HW232004   3.601   6.154   1.162
 9053SOL     OW32005   2.114   7.150   1.744
 9053SOL    HW132006   2.084   7.207   1.820
 9053SOL    HW232007   2.107   7.053   1.770
 9054SOL     OW32008   2.533   6.050   1.269
 9054SOL    HW132009   2.499   5.961   1.239
 9054SOL    HW232010   2.559   6.104   1.189
 9055SOL     OW32011   2.792   7.264   1.465
 9055SOL    HW132012   2.768   7.246   1.370
 9055SOL    HW232013   2.822   7.358   1.475
 9056SOL     OW32014   2.335   6.086   0.191
 9056SOL    HW132015   2.396   6.166   0.195
 9056SOL    HW232016   2.240   6.117   0.198
 9057SOL     OW32017   2.021   6.723   1.466
 9057SOL    HW132018   2.043   6.662   1.542
 9057SOL    HW232019   2.031   6.674   1.380
 9058SOL     OW32020   3.209   6.645   1.234
 9058SOL    HW132021   3.233   6.582   1.160
 9058SOL    HW232022   3.119   6.685   1.216
 9059SOL     OW32023   3.164   6.441   0.309
 9059SOL    HW132024   3.078   6.410   0.351
 9059SOL    HW232025   3.160   6.427   0.210
 9060SOL     OW32026   3.621   7.333   1.154
 9060SOL    HW132027   3.682   7.363   1.081
 9060SOL    HW232028   3.583   7.244   1.132
 9061SOL     OW32029   3.114   7.317   1.128
 9061SOL    HW132030   3.198   7.322   1.074
 9061SOL    HW232031   3.091   7.221   1.146
 9062SOL     OW32032   1.945   6.844   1.022
 9062SOL    HW132033   1.940   6.843   1.122
 9062SOL    HW232034   1.862   6.803   0.984
 9063SOL     OW32035   2.550   7.248   1.716
 9063SOL    HW132036   2.494   7.329   1.725
 9063SOL    HW232037   2.602   7.252   1.630
 9064SOL     OW32038   2.765   5.672   0.133
 9064SOL    HW132039   2.816   5.673   0.047
 9064SOL    HW232040   2.821   5.630   0.204
 9065SOL     OW32041   3.588   5.721   0.523
 9065SOL    HW132042   3.661   5.704   0.456
 9065SOL    HW232043   3.557   5.634   0.561
 9066SOL     OW32044   3.250   7.159   0.477
 9066SOL    HW132045   3.317   7.171   0.403
 9066SOL    HW232046   3.210   7.248   0.500
 9067SOL     OW32047   1.992   7.380   1.851
 9067SOL    HW132048   1.951   7.306   1.904
 9067SOL    HW232049   2.056   7.431   1.909
 9068SOL     OW32050   3.142   6.513   0.672
 9068SOL    HW132051   3.202   6.432   0.674
 9068SOL    HW232052   3.182   6.582   0.612
 9069SOL     OW32053   2.692   6.859   1.422
 9069SOL    HW132054   2.687   6.892   1.517
 9069SOL    HW232055   2.606   6.878   1.376
 9070SOL     OW32056   2.534   7.202   0.154
 9070SOL    HW132057   2.543   7.212   0.055
 9070SOL    HW232058   2.494   7.113   0.175
 9071SOL     OW32059   3.512   7.306   1.394
 9071SOL    HW132060   3.565   7.316   1.310
 9071SOL    HW232061   3.485   7.396   1.428
 9072SOL     OW32062   3.703   5.761   0.963
 9072SOL    HW132063   3.742   5.676   0.927
 9072SOL    HW232064   3.605   5.763   0.944
 9073SOL     OW32065   2.125   5.912   0.720
 9073SOL    HW132066   2.046   5.963   0.686
 9073SOL    HW232067   2.116   5.897   0.818
 9074SOL     OW32068   3.056   7.198   0.031
 9074SOL    HW132069   3.062   7.105   0.068
 9074SOL    HW232070   2.997   7.198  -0.049
 9075SOL     OW32071   2.684   6.588   1.372
 9075SOL    HW132072   2.724   6.587   1.280
 9075SOL    HW232073   2.694   6.680   1.412
 9076SOL     OW32074   2.778   6.496   0.291
 9076SOL    HW132075   2.841   6.534   0.223
 9076SOL    HW232076   2.818   6.413   0.330
 9077SOL     OW32077   3.366   7.193   0.044
 9077SOL    HW132078   3.274   7.230   0.051
 9077SOL    HW232079   3.404   7.213  -0.046
 9078SOL     OW32080   2.234   6.874   1.490
 9078SOL    HW132081   2.221   6.967   1.456
 9078SOL    HW232082   2.150   6.822   1.477
 9079SOL     OW32083   3.476   6.878   1.289
 9079SOL    HW132084   3.536   6.881   1.369
 9079SOL    HW232085   3.401   6.942   1.302
 9080SOL     OW32086   2.901   6.684   0.696
 9080SOL    HW132087   2.831   6.637   0.750
 9080SOL    HW232088   2.960   6.616   0.653
 9081SOL     OW32089   2.876   5.822   0.971
 9081SOL    HW132090   2.868   5.786   0.878
 9081SOL    HW232091   2.874   5.746   1.036
 9082SOL     OW32092   2.452   7.073   0.491
 9082SOL    HW132093   2.494   7.015   0.421
 9082SOL    HW232094   2.408   7.152   0.447
 9083SOL     OW32095   3.571   5.971   1.381
 9083SOL    HW132096   3.644   6.040   1.385
 9083SOL    HW232097   3.599   5.896   1.322
 9084SOL     OW32098   2.117   6.934   0.290
 9084SOL    HW132099   2.021   6.935   0.263
 9084SOL    HW232100   2.129   6.987   0.374
 9085SOL     OW32101   1.967   6.599   1.726
 9085SOL    HW132102   1.890   6.566   1.780
 9085SOL    HW232103   2.052   6.569   1.768
 9086SOL     OW32104   2.534   5.789   1.489
 9086SOL    HW132105   2.624   5.773   1.449
 9086SOL    HW232106   2.542   5.794   1.588
 9087SOL     OW32107   1.937   5.931   0.033
 9087SOL    HW132108   1.845   5.903   0.004
 9087SOL    HW232109   1.968   6.008  -0.023
 9088SOL     OW32110   3.302   6.442   1.398
 9088SOL    HW132111   3.245   6.494   1.335
 9088SOL    HW232112   3.398   6.454   1.374
 9089SOL     OW32113   1.934   5.752   0.318
 9089SOL    HW132114   1.917   5.835   0.264
 9089SOL    HW232115   2.024   5.715   0.296
 9090SOL     OW32116   3.045   6.921   0.119
 9090SOL    HW132117   2.946   6.910   0.121
 9090SOL    HW232118   3.079   6.936   0.212
 9091SOL     OW32119   2.475   6.428   1.431
 9091SOL    HW132120   2.531   6.509   1.414
 9091SOL    HW232121   2.534   6.348   1.434
 9092SOL     OW32122   3.355   7.353   0.959
 9092SOL    HW132123   3.388   7.417   0.890
 9092SOL    HW232124   3.421   7.347   1.034
 9093SOL     OW32125   2.578   6.151   1.708
 9093SOL    HW132126   2.597   6.216   1.782
 9093SOL    HW232127   2.638   6.071   1.717
 9094SOL     OW32128   3.312   6.806   1.633
 9094SOL    HW132129   3.303   6.796   1.732
 9094SOL    HW232130   3.408   6.799   1.607
 9095SOL     OW32131   2.252   7.327   1.560
 9095SOL    HW132132   2.161   7.368   1.558
 9095SOL    HW232133   2.245   7.233   1.592
 9096SOL     OW32134   3.536   6.469   1.254
 9096SOL    HW132135   3.509   6.380   1.217
 9096SOL    HW232136   3.537   6.537   1.181
 9097SOL     OW32137   3.087   5.911   0.449
 9097SOL    HW132138   3.152   5.837   0.438
 9097SOL    HW232139   3.107   5.961   0.533
 9098SOL     OW32140   2.456   6.331   0.652
 9098SOL    HW132141   2.506   6.416   0.633
 9098SOL    HW232142   2.368   6.333   0.604
 9099SOL     OW32143   3.639   5.928   1.642
 9099SOL    HW132144   3.622   5.959   1.548
 9099SOL    HW232145   3.555   5.891   1.680
 9100SOL     OW32146   3.592   6.520   1.517
 9100SOL    HW132147   3.630   6.611   1.532
 9100SOL    HW232148   3.584   6.503   1.418
 9101SOL     OW32149   2.721   6.960   0.016
 9101SOL    HW132150   2.675   6.975   0.104
 9101SOL    HW232151   2.765   7.045  -0.014
 9102SOL     OW32152   2.523   7.376   0.953
 9102SOL    HW132153   2.477   7.464   0.940
 9102SOL    HW232154   2.622   7.388   0.946
 9103SOL     OW32155   2.721   6.542   0.861
 9103SOL    HW132156   2.775   6.473   0.909
 9103SOL    HW232157   2.689   6.611   0.927
 9104SOL     OW32158   2.945   6.570   0.087
 9104SOL    HW132159   2.922   6.623   0.005
 9104SOL    HW232160   3.026   6.514   0.068
 9105SOL     OW32161   3.723   7.155   0.851
 9105SOL    HW132162   3.652   7.143   0.781
 9105SOL    HW232163   3.724   7.076   0.911
 9106SOL     OW32164   2.083   6.900   1.844
 9106SOL    HW132165   2.018   6.827   1.823
 9106SOL    HW232166   2.087   6.914   1.942
 9107SOL     OW32167   1.941   6.826   0.653
 9107SOL    HW132168   1.940   6.779   0.741
 9107SOL    HW232169   2.023   6.798   0.602
 9108SOL     OW32170   3.686   5.778   1.227
 9108SOL    HW132171   3.682   5.688   1.271
 9108SOL    HW232172   3.689   5.767   1.128
 9109SOL     OW32173   2.290   6.010   0.520
 9109SOL    HW132174   2.320   5.938   0.458
 9109SOL    HW232175   2.251   5.970   0.603
 9110SOL     OW32176   3.567   7.073   1.104
 9110SOL    HW132177   3.474   7.048   1.077
 9110SOL    HW232178   3.593   7.023   1.186
 9111SOL     OW32179   2.179   6.133   1.280
 9111SOL    HW132180   2.217   6.074   1.352
 9111SOL    HW232181   2.219   6.107   1.192
 9112SOL     OW32182   2.674   7.172   0.687
 9112SOL    HW132183   2.706   7.182   0.593
 9112SOL    HW232184   2.595   7.110   0.689
 9113SOL     OW32185   2.863   5.620   1.154
 9113SOL    HW132186   2.800   5.548   1.123
 9113SOL    HW232187   2.956   5.584   1.154
 9114SOL     OW32188   2.632   6.916   0.301
 9114SOL    HW132189   2.586   6.829   0.318
 9114SOL    HW232190   2.723   6.913   0.342
 9115SOL     OW32191   2.480   7.153   1.284
 9115SOL    HW132192   2.475   7.235   1.341
 9115SOL    HW232193   2.569   7.150   1.239
 9116SOL     OW32194   3.214   5.638   0.168
 9116SOL    HW132195   3.249   5.597   0.084
 9116SOL    HW232196   3.124   5.600   0.188
 9117SOL     OW32197   3.162   6.039   0.691
 9117SOL    HW132198   3.103   6.119   0.695
 9117SOL    HW232199   3.177   6.004   0.784
 9118SOL     OW32200   3.455   5.807   0.882
 9118SOL    HW132201   3.371   5.806   0.936
 9118SOL    HW232202   3.457   5.890   0.826
 9119SOL     OW32203   1.901   6.663   0.300
 9119SOL    HW132204   2.000   6.652   0.291
 9119SOL    HW232205   1.861   6.577   0.332
 9120SOL     OW32206   2.737   7.232   0.337
 9120SOL    HW132207   2.660   7.197   0.283
 9120SOL    HW232208   2.705   7.303   0.399
 9121SOL     OW32209   2.087   5.861   2.858
 9121SOL    HW132210   2.122   5.844   2.950
 9121SOL    HW232211   1.999   5.816   2.846
 9122SOL     OW32212   1.881   5.954   2.509
 9122SOL    HW132213   1.799   5.997   2.548
 9122SOL    HW232214   1.853   5.881   2.446
 9123SOL     OW32215   2.431   6.861   3.027
 9123SOL    HW132216   2.338   6.854   2.990
 9123SOL    HW232217   2.442   6.950   3.071
 9124SOL     OW32218   3.417   7.097   2.565
 9124SOL    HW132219   3.360   7.081   2.646
 9124SOL    HW232220   3.358   7.107   2.485
 9125SOL     OW32221   2.997   6.289   2.579
 9125SOL    HW132222   3.054   6.367   2.554
 9125SOL    HW232223   2.937   6.315   2.655
 9126SOL     OW32224   3.617   6.193   2.093
 9126SOL    HW132225   3.605   6.180   1.994
 9126SOL    HW232226   3.587   6.112   2.142
 9127SOL     OW32227   2.630   6.730   2.885
 9127SOL    HW132228   2.552   6.747   2.945
 9127SOL    HW232229   2.664   6.817   2.849
 9128SOL     OW32230   2.712   6.384   3.685
 9128SOL    HW132231   2.708   6.460   3.750
 9128SOL    HW232232   2.734   6.420   3.594
 9129SOL     OW32233   2.547   6.598   2.527
 9129SOL    HW132234   2.616   6.582   2.597
 9129SOL    HW232235   2.474   6.655   2.565
 9130SOL     OW32236   2.548   6.747   3.665
 9130SOL    HW132237   2.608   6.826   3.679
 9130SOL    HW232238   2.462   6.778   3.624
 9131SOL     OW32239   2.197   7.021   2.923
 9131SOL    HW132240   2.119   6.990   2.870
 9131SOL    HW232241   2.255   7.079   2.866
 9132SOL     OW32242   3.322   7.091   3.201
 9132SOL    HW132243   3.346   7.185   3.227
 9132SOL    HW232244   3.306   7.037   3.283
 9133SOL     OW32245   2.300   5.978   3.361
 9133SOL    HW132246   2.382   5.922   3.370
 9133SOL    HW232247   2.219   5.920   3.365
 9134SOL     OW32248   3.465   6.033   2.599
 9134SOL    HW132249   3.391   6.079   2.549
 9134SOL    HW232250   3.516   6.101   2.652
 9135SOL     OW32251   2.093   7.299   2.345
 9135SOL    HW132252   2.127   7.376   2.399
 9135SOL    HW232253   2.137   7.299   2.255
 9136SOL     OW32254   2.989   6.927   3.552
 9136SOL    HW132255   3.036   6.927   3.640
 9136SOL    HW232256   2.941   6.840   3.541
 9137SOL     OW32257   2.092   7.020   2.400
 9137SOL    HW132258   2.066   7.116   2.400
 9137SOL    HW232259   2.021   6.966   2.445
 9138SOL     OW32260   2.102   6.677   2.748
 9138SOL    HW132261   2.116   6.593   2.800
 9138SOL    HW232262   2.047   6.741   2.803
 9139SOL     OW32263   2.482   7.372   3.301
 9139SOL    HW132264   2.390   7.355   3.336
 9139SOL    HW232265   2.510   7.464   3.327
 9140SOL     OW32266   2.468   6.550   1.985
 9140SOL    HW132267   2.475   6.634   1.931
 9140SOL    HW232268   2.514   6.563   2.073
 9141SOL     OW32269   3.456   5.700   3.342
 9141SOL    HW132270   3.438   5.767   3.270
 9141SOL    HW232271   3.453   5.746   3.431
 9142SOL     OW32272   1.984   6.229   2.425
 9142SOL    HW132273   1.939   6.141   2.442
 9142SOL    HW232274   1.983   6.283   2.509
 9143SOL     OW32275   3.704   7.353   2.221
 9143SOL    HW132276   3.758   7.324   2.301
 9143SOL    HW232277   3.734   7.443   2.192
 9144SOL     OW32278   1.889   7.182   1.979
 9144SOL    HW132279   1.870   7.086   2.000
 9144SOL    HW232280   1.856   7.240   2.054
 9145SOL     OW32281   3.551   6.508   2.474
 9145SOL    HW132282   3.646   6.479   2.482
 9145SOL    HW232283   3.543   6.573   2.399
 9146SOL     OW32284   3.503   6.694   2.294
 9146SOL    HW132285   3.589   6.696   2.242
 9146SOL    HW232286   3.517   6.741   2.382
 9147SOL     OW32287   1.975   6.323   3.459
 9147SOL    HW132288   2.063   6.310   3.504
 9147SOL    HW232289   1.962   6.420   3.437
 9148SOL     OW32290   2.475   6.951   2.588
 9148SOL    HW132291   2.426   6.864   2.597
 9148SOL    HW232292   2.452   6.994   2.501
 9149SOL     OW32293   3.155   6.814   3.285
 9149SOL    HW132294   3.192   6.741   3.227
 9149SOL    HW232295   3.207   6.819   3.370
 9150SOL     OW32296   2.671   5.590   2.364
 9150SOL    HW132297   2.711   5.681   2.355
 9150SOL    HW232298   2.571   5.598   2.370
 9151SOL     OW32299   2.059   6.562   3.126
 9151SOL    HW132300   2.148   6.517   3.112
 9151SOL    HW232301   1.986   6.497   3.107
 9152SOL     OW32302   3.387   6.585   2.052
 9152SOL    HW132303   3.324   6.509   2.065
 9152SOL    HW232304   3.435   6.603   2.138
 9153SOL     OW32305   3.049   7.378   3.478
 9153SOL    HW132306   3.073   7.438   3.402
 9153SOL    HW232307   3.056   7.283   3.448
 9154SOL     OW32308   2.179   5.837   3.663
 9154SOL    HW132309   2.250   5.908   3.669
 9154SOL    HW232310   2.091   5.876   3.691
 9155SOL     OW32311   3.529   7.300   2.434
 9155SOL    HW132312   3.488   7.277   2.346
 9155SOL    HW232313   3.511   7.226   2.499
 9156SOL     OW32314   2.460   6.315   2.132
 9156SOL    HW132315   2.484   6.384   2.064
 9156SOL    HW232316   2.382   6.348   2.186
 9157SOL     OW32317   3.143   5.931   2.806
 9157SOL    HW132318   3.057   5.881   2.793
 9157SOL    HW232319   3.205   5.877   2.862
 9158SOL     OW32320   3.438   7.248   2.169
 9158SOL    HW132321   3.527   7.294   2.172
 9158SOL    HW232322   3.417   7.224   2.074
 9159SOL     OW32323   2.669   6.191   3.327
 9159SOL    HW132324   2.622   6.188   3.416
 9159SOL    HW232325   2.618   6.136   3.261
 9160SOL     OW32326   3.256   6.055   3.536
 9160SOL    HW132327   3.236   6.098   3.624
 9160SOL    HW232328   3.334   5.993   3.545
 9161SOL     OW32329   2.835   6.476   3.434
 9161SOL    HW132330   2.881   6.392   3.405
 9161SOL    HW232331   2.779   6.510   3.359
 9162SOL     OW32332   2.853   5.996   3.104
 9162SOL    HW132333   2.776   6.030   3.158
 9162SOL    HW232334   2.819   5.945   3.025
 9163SOL     OW32335   2.903   6.287   2.291
 9163SOL    HW132336   2.929   6.283   2.387
 9163SOL    HW232337   2.818   6.236   2.277
 9164SOL     OW32338   1.938   6.397   2.651
 9164SOL    HW132339   2.037   6.385   2.660
 9164SOL    HW232340   1.914   6.492   2.672
 9165SOL     OW32341   1.992   7.407   3.433
 9165SOL    HW132342   1.982   7.392   3.532
 9165SOL    HW232343   1.906   7.443   3.397
 9166SOL     OW32344   2.727   5.934   2.057
 9166SOL    HW132345   2.786   5.997   2.008
 9166SOL    HW232346   2.746   5.840   2.028
 9167SOL     OW32347   3.581   6.171   3.693
 9167SOL    HW132348   3.555   6.260   3.657
 9167SOL    HW232349   3.579   6.103   3.620
 9168SOL     OW32350   3.224   6.730   2.407
 9168SOL    HW132351   3.307   6.701   2.359
 9168SOL    HW232352   3.175   6.797   2.351
 9169SOL     OW32353   2.412   5.782   2.747
 9169SOL    HW132354   2.407   5.777   2.847
 9169SOL    HW232355   2.414   5.878   2.718
 9170SOL     OW32356   2.870   7.042   2.339
 9170SOL    HW132357   2.824   7.114   2.287
 9170SOL    HW232358   2.866   7.062   2.437
 9171SOL     OW32359   2.213   7.387   2.715
 9171SOL    HW132360   2.263   7.301   2.721
 9171SOL    HW232361   2.278   7.464   2.712
 9172SOL     OW32362   3.657   6.652   2.735
 9172SOL    HW132363   3.595   6.637   2.659
 9172SOL    HW232364   3.605   6.663   2.820
 9173SOL     OW32365   3.089   7.136   3.368
 9173SOL    HW132366   3.095   7.059   3.432
 9173SOL    HW232367   3.037   7.110   3.288
 9174SOL     OW32368   2.183   6.529   2.104
 9174SOL    HW132369   2.265   6.568   2.062
 9174SOL    HW232370   2.156   6.447   2.055
 9175SOL     OW32371   3.320   6.321   2.590
 9175SOL    HW132372   3.315   6.256   2.665
 9175SOL    HW232373   3.400   6.380   2.603
 9176SOL     OW32374   2.323   6.852   3.589
 9176SOL    HW132375   2.273   6.853   3.503
 9176SOL    HW232376   2.260   6.834   3.665
 9177SOL     OW32377   2.973   7.362   2.099
 9177SOL    HW132378   2.913   7.300   2.149
 9177SOL    HW232379   3.004   7.318   2.014
 9178SOL     OW32380   2.064   5.871   3.360
 9178SOL    HW132381   1.984   5.931   3.347
 9178SOL    HW232382   2.054   5.822   3.446
 9179SOL     OW32383   3.494   6.963   1.943
 9179SOL    HW132384   3.462   7.057   1.933
 9179SOL    HW232385   3.418   6.900   1.931
 9180SOL     OW32386   2.326   7.329   2.185
 9180SOL    HW132387   2.359   7.368   2.271
 9180SOL    HW232388   2.402   7.322   2.120
 9181SOL     OW32389   3.262   5.693   2.288
 9181SOL    HW132390   3.238   5.656   2.198
 9181SOL    HW232391   3.361   5.709   2.292
 9182SOL     OW32392   2.111   7.371   3.103
 9182SOL    HW132393   2.168   7.306   3.153
 9182SOL    HW232394   2.095   7.338   3.010
 9183SOL     OW32395   2.802   7.284   2.766
 9183SOL    HW132396   2.882   7.227   2.787
 9183SOL    HW232397   2.753   7.244   2.689
 9184SOL     OW32398   2.244   6.286   2.342
 9184SOL    HW132399   2.289   6.196   2.339
 9184SOL    HW232400   2.150   6.275   2.375
 9185SOL     OW32401   3.409   5.808   3.591
 9185SOL    HW132402   3.404   5.845   3.683
 9185SOL    HW232403   3.337   5.739   3.579
 9186SOL     OW32404   2.476   5.708   1.979
 9186SOL    HW132405   2.574   5.686   1.986
 9186SOL    HW232406   2.445   5.691   1.886
 9187SOL     OW32407   2.643   5.850   3.611
 9187SOL    HW132408   2.710   5.789   3.654
 9187SOL    HW232409   2.570   5.869   3.676
 9188SOL     OW32410   2.750   7.100   3.057
 9188SOL    HW132411   2.727   7.075   2.963
 9188SOL    HW232412   2.811   7.031   3.096
 9189SOL     OW32413   3.213   6.176   3.295
 9189SOL    HW132414   3.241   6.133   3.380
 9189SOL    HW232415   3.238   6.272   3.296
 9190SOL     OW32416   2.665   6.988   2.786
 9190SOL    HW132417   2.755   7.002   2.744
 9190SOL    HW232418   2.594   6.990   2.715
 9191SOL     OW32419   2.784   6.089   2.761
 9191SOL    HW132420   2.759   6.080   2.665
 9191SOL    HW232421   2.832   6.007   2.792
 9192SOL     OW32422   2.401   5.650   2.374
 9192SOL    HW132423   2.320   5.651   2.432
 9192SOL    HW232424   2.404   5.733   2.319
 9193SOL     OW32425   3.296   6.774   1.903
 9193SOL    HW132426   3.328   6.698   1.960
 9193SOL    HW232427   3.204   6.801   1.933
 9194SOL     OW32428   2.159   5.621   2.033
 9194SOL    HW132429   2.208   5.705   2.012
 9194SOL    HW232430   2.221   5.556   2.078
 9195SOL     OW32431   2.797   5.822   2.342
 9195SOL    HW132432   2.749   5.863   2.264
 9195SOL    HW232433   2.896   5.820   2.323
 9196SOL     OW32434   2.938   6.269   3.326
 9196SOL    HW132435   2.858   6.208   3.329
 9196SOL    HW232436   3.019   6.216   3.302
 9197SOL     OW32437   3.089   7.156   2.655
 9197SOL    HW132438   3.110   7.230   2.590
 9197SOL    HW232439   3.157   7.156   2.728
 9198SOL     OW32440   2.321   6.738   2.603
 9198SOL    HW132441   2.250   6.711   2.668
 9198SOL    HW232442   2.295   6.710   2.510
 9199SOL     OW32443   3.133   7.383   2.453
 9199SOL    HW132444   3.177   7.447   2.389
 9199SOL    HW232445   3.083   7.435   2.523
 9200SOL     OW32446   2.894   6.135   1.878
 9200SOL    HW132447   2.853   6.217   1.839
 9200SOL    HW232448   2.958   6.161   1.951
 9201SOL     OW32449   1.940   6.142   3.248
 9201SOL    HW132450   2.032   6.141   3.207
 9201SOL    HW232451   1.934   6.216   3.315
 9202SOL     OW32452   2.423   5.808   3.009
 9202SOL    HW132453   2.461   5.724   3.046
 9202SOL    HW232454   2.335   5.827   3.053
 9203SOL     OW32455   2.728   6.040   2.504
 9203SOL    HW132456   2.696   6.112   2.442
 9203SOL    HW232457   2.752   5.959   2.451
 9204SOL     OW32458   2.879   5.625   2.615
 9204SOL    HW132459   2.807   5.630   2.546
 9204SOL    HW232460   2.855   5.556   2.684
 9205SOL     OW32461   3.291   6.759   2.729
 9205SOL    HW132462   3.236   6.675   2.722
 9205SOL    HW232463   3.317   6.788   2.637
 9206SOL     OW32464   3.328   6.176   2.854
 9206SOL    HW132465   3.298   6.081   2.861
 9206SOL    HW232466   3.401   6.192   2.920
 9207SOL     OW32467   3.719   6.419   2.239
 9207SOL    HW132468   3.761   6.355   2.303
 9207SOL    HW232469   3.681   6.368   2.161
 9208SOL     OW32470   2.350   6.971   2.036
 9208SOL    HW132471   2.263   6.956   2.083
 9208SOL    HW232472   2.333   6.997   1.941
 9209SOL     OW32473   3.526   6.866   2.519
 9209SOL    HW132474   3.625   6.874   2.533
 9209SOL    HW232475   3.481   6.950   2.550
 9210SOL     OW32476   3.252   6.161   1.940
 9210SOL    HW132477   3.198   6.140   2.021
 9210SOL    HW232478   3.343   6.120   1.949
 9211SOL     OW32479   2.389   5.842   2.190
 9211SOL    HW132480   2.416   5.783   2.115
 9211SOL    HW232481   2.389   5.937   2.159
 9212SOL     OW32482   3.616   6.809   3.450
 9212SOL    HW132483   3.707   6.770   3.437
 9212SOL    HW232484   3.624   6.905   3.474
 9213SOL     OW32485   2.926   6.933   3.202
 9213SOL    HW132486   2.846   6.910   3.257
 9213SOL    HW232487   3.009   6.907   3.251
 9214SOL     OW32488   3.454   7.215   3.487
 9214SOL    HW132489   3.481   7.249   3.397
 9214SOL    HW232490   3.533   7.177   3.533
 9215SOL     OW32491   2.973   6.781   2.962
 9215SOL    HW132492   2.933   6.825   3.043
 9215SOL    HW232493   2.932   6.818   2.879
 9216SOL     OW32494   3.500   6.685   2.941
 9216SOL    HW132495   3.505   6.766   3.000
 9216SOL    HW232496   3.414   6.687   2.890
 9217SOL     OW32497   2.777   5.675   3.264
 9217SOL    HW132498   2.802   5.655   3.169
 9217SOL    HW232499   2.849   5.731   3.306
 9218SOL     OW32500   2.842   6.702   3.581
 9218SOL    HW132501   2.743   6.708   3.591
 9218SOL    HW232502   2.865   6.622   3.525
 9219SOL     OW32503   2.567   6.636   2.230
 9219SOL    HW132504   2.553   6.643   2.329
 9219SOL    HW232505   2.651   6.585   2.212
 9220SOL     OW32506   2.272   6.399   3.113
 9220SOL    HW132507   2.358   6.411   3.163
 9220SOL    HW232508   2.230   6.312   3.140
 9221SOL     OW32509   3.136   5.972   3.124
 9221SOL    HW132510   3.157   6.046   3.188
 9221SOL    HW232511   3.047   5.989   3.081
 9222SOL     OW32512   1.926   7.150   3.193
 9222SOL    HW132513   1.880   7.232   3.159
 9222SOL    HW232514   2.024   7.169   3.202
 9223SOL     OW32515   2.229   6.686   2.363
 9223SOL    HW132516   2.222   6.769   2.307
 9223SOL    HW232517   2.233   6.606   2.303
 9224SOL     OW32518   2.428   6.123   2.727
 9224SOL    HW132519   2.440   6.189   2.653
 9224SOL    HW232520   2.474   6.157   2.810
 9225SOL     OW32521   3.114   6.934   2.250
 9225SOL    HW132522   3.164   7.011   2.290
 9225SOL    HW232523   3.019   6.936   2.282
 9226SOL     OW32524   3.134   7.031   3.004
 9226SOL    HW132525   3.181   7.044   3.091
 9226SOL    HW232526   3.068   6.957   3.013
 9227SOL     OW32527   3.444   6.225   2.334
 9227SOL    HW132528   3.413   6.286   2.407
 9227SOL    HW232529   3.494   6.277   2.265
 9228SOL     OW32530   2.216   7.096   3.191
 9228SOL    HW132531   2.195   7.052   3.104
 9228SOL    HW232532   2.313   7.122   3.194
 9229SOL     OW32533   2.264   6.337   3.460
 9229SOL    HW132534   2.332   6.392   3.413
 9229SOL    HW232535   2.304   6.249   3.487
 9230SOL     OW32536   3.449   6.365   3.532
 9230SOL    HW132537   3.357   6.403   3.527
 9230SOL    HW232538   3.509   6.412   3.467
 9231SOL     OW32539   2.875   5.691   3.632
 9231SOL    HW132540   2.881   5.776   3.580
 9231SOL    HW232541   2.907   5.615   3.575
 9232SOL     OW32542   2.366   5.636   3.602
 9232SOL    HW132543   2.324   5.579   3.532
 9232SOL    HW232544   2.300   5.705   3.634
 9233SOL     OW32545   2.435   6.456   2.891
 9233SOL    HW132546   2.479   6.545   2.882
 9233SOL    HW232547   2.372   6.456   2.968
 9234SOL     OW32548   3.222   6.448   2.907
 9234SOL    HW132549   3.147   6.448   2.841
 9234SOL    HW232550   3.259   6.356   2.916
 9235SOL     OW32551   3.071   6.111   2.137
 9235SOL    HW132552   3.084   6.027   2.191
 9235SOL    HW232553   3.042   6.185   2.197
 9236SOL     OW32554   2.169   5.799   3.093
 9236SOL    HW132555   2.146   5.836   3.183
 9236SOL    HW232556   2.139   5.704   3.087
 9237SOL     OW32557   1.899   6.896   3.144
 9237SOL    HW132558   1.952   6.847   3.212
 9237SOL    HW232559   1.921   6.994   3.149
 9238SOL     OW32560   2.594   6.220   2.926
 9238SOL    HW132561   2.653   6.194   2.850
 9238SOL    HW232562   2.566   6.316   2.915
 9239SOL     OW32563   3.590   6.521   3.716
 9239SOL    HW132564   3.544   6.514   3.627
 9239SOL    HW232565   3.528   6.565   3.782
 9240SOL     OW32566   2.169   5.649   2.480
 9240SOL    HW132567   2.158   5.743   2.513
 9240SOL    HW232568   2.164   5.586   2.557
 9241SOL     OW32569   3.484   5.953   2.236
 9241SOL    HW132570   3.486   5.877   2.300
 9241SOL    HW232571   3.436   6.030   2.276
 9242SOL     OW32572   2.885   6.352   2.828
 9242SOL    HW132573   2.900   6.373   2.924
 9242SOL    HW232574   2.855   6.257   2.819
 9243SOL     OW32575   2.842   7.159   3.562
 9243SOL    HW132576   2.822   7.203   3.474
 9243SOL    HW232577   2.881   7.068   3.546
 9244SOL     OW32578   3.721   7.104   3.467
 9244SOL    HW132579   3.735   7.131   3.372
 9244SOL    HW232580   3.804   7.126   3.520
 9245SOL     OW32581   2.212   6.484   3.666
 9245SOL    HW132582   2.288   6.528   3.714
 9245SOL    HW232583   2.247   6.437   3.584
 9246SOL     OW32584   3.402   5.860   1.987
 9246SOL    HW132585   3.341   5.785   2.010
 9246SOL    HW232586   3.424   5.912   2.070
 9247SOL     OW32587   3.165   6.424   1.904
 9247SOL    HW132588   3.199   6.331   1.919
 9247SOL    HW232589   3.183   6.451   1.809
 9248SOL     OW32590   2.930   6.919   2.711
 9248SOL    HW132591   2.937   6.835   2.656
 9248SOL    HW232592   2.992   6.988   2.675
 9249SOL     OW32593   2.181   6.396   2.811
 9249SOL    HW132594   2.274   6.432   2.816
 9249SOL    HW232595   2.175   6.311   2.863
 9250SOL     OW32596   3.000   5.966   3.540
 9250SOL    HW132597   2.955   6.029   3.604
 9250SOL    HW232598   3.093   5.997   3.523
 9251SOL     OW32599   3.022   5.793   3.339
 9251SOL    HW132600   3.022   5.857   3.416
 9251SOL    HW232601   3.050   5.841   3.256
 9252SOL     OW32602   1.870   6.912   2.062
 9252SOL    HW132603   1.777   6.933   2.031
 9252SOL    HW232604   1.880   6.813   2.075
 9253SOL     OW32605   1.950   7.387   2.789
 9253SOL    HW132606   1.908   7.301   2.762
 9253SOL    HW232607   2.044   7.390   2.755
 9254SOL     OW32608   2.366   7.154   2.772
 9254SOL    HW132609   2.432   7.228   2.781
 9254SOL    HW232610   2.410   7.075   2.730
 9255SOL     OW32611   2.864   6.382   3.100
 9255SOL    HW132612   2.905   6.350   3.186
 9255SOL    HW232613   2.768   6.355   3.097
 9256SOL     OW32614   1.902   6.130   2.976
 9256SOL    HW132615   1.987   6.097   2.935
 9256SOL    HW232616   1.915   6.145   3.074
 9257SOL     OW32617   2.051   6.106   3.584
 9257SOL    HW132618   2.110   6.066   3.514
 9257SOL    HW232619   1.993   6.177   3.543
 9258SOL     OW32620   3.231   6.536   3.522
 9258SOL    HW132621   3.270   6.625   3.542
 9258SOL    HW232622   3.241   6.516   3.425
 9259SOL     OW32623   2.677   6.158   2.187
 9259SOL    HW132624   2.684   6.069   2.141
 9259SOL    HW232625   2.583   6.192   2.179
 9260SOL     OW32626   3.519   6.190   3.068
 9260SOL    HW132627   3.481   6.121   3.130
 9260SOL    HW232628   3.601   6.154   3.024
 9261SOL     OW32629   2.114   7.150   3.606
 9261SOL    HW132630   2.084   7.207   3.682
 9261SOL    HW232631   2.107   7.053   3.632
 9262SOL     OW32632   2.533   6.050   3.131
 9262SOL    HW132633   2.499   5.961   3.101
 9262SOL    HW232634   2.559   6.104   3.051
 9263SOL     OW32635   2.792   7.264   3.327
 9263SOL    HW132636   2.768   7.246   3.232
 9263SOL    HW232637   2.822   7.358   3.337
 9264SOL     OW32638   2.335   6.086   2.053
 9264SOL    HW132639   2.396   6.166   2.057
 9264SOL    HW232640   2.240   6.117   2.060
 9265SOL     OW32641   2.021   6.723   3.328
 9265SOL    HW132642   2.043   6.662   3.404
 9265SOL    HW232643   2.031   6.674   3.242
 9266SOL     OW32644   3.209   6.645   3.096
 9266SOL    HW132645   3.233   6.582   3.022
 9266SOL    HW232646   3.119   6.685   3.078
 9267SOL     OW32647   3.164   6.441   2.171
 9267SOL    HW132648   3.078   6.410   2.213
 9267SOL    HW232649   3.160   6.427   2.072
 9268SOL     OW32650   3.621   7.333   3.016
 9268SOL    HW132651   3.682   7.363   2.943
 9268SOL    HW232652   3.583   7.244   2.994
 9269SOL     OW32653   3.114   7.317   2.990
 9269SOL    HW132654   3.198   7.322   2.936
 9269SOL    HW232655   3.091   7.221   3.008
 9270SOL     OW32656   1.945   6.844   2.884
 9270SOL    HW132657   1.940   6.843   2.984
 9270SOL    HW232658   1.862   6.803   2.846
 9271SOL     OW32659   2.550   7.248   3.578
 9271SOL    HW132660   2.494   7.329   3.587
 9271SOL    HW232661   2.602   7.252   3.492
 9272SOL     OW32662   3.588   5.721   2.385
 9272SOL    HW132663   3.661   5.704   2.318
 9272SOL    HW232664   3.557   5.634   2.423
 9273SOL     OW32665   3.250   7.159   2.339
 9273SOL    HW132666   3.317   7.171   2.265
 9273SOL    HW232667   3.210   7.248   2.362
 9274SOL     OW32668   1.992   7.380   3.713
 9274SOL    HW132669   1.951   7.306   3.766
 9274SOL    HW232670   2.056   7.431   3.771
 9275SOL     OW32671   3.142   6.513   2.534
 9275SOL    HW132672   3.202   6.432   2.536
 9275SOL    HW232673   3.182   6.582   2.474
 9276SOL     OW32674   2.534   7.202   2.016
 9276SOL    HW132675   2.543   7.212   1.917
 9276SOL    HW232676   2.494   7.113   2.037
 9277SOL     OW32677   3.512   7.306   3.256
 9277SOL    HW132678   3.565   7.316   3.172
 9277SOL    HW232679   3.485   7.396   3.290
 9278SOL     OW32680   3.703   5.761   2.825
 9278SOL    HW132681   3.742   5.676   2.789
 9278SOL    HW232682   3.605   5.763   2.806
 9279SOL     OW32683   2.125   5.912   2.582
 9279SOL    HW132684   2.046   5.963   2.548
 9279SOL    HW232685   2.116   5.897   2.680
 9280SOL     OW32686   3.056   7.198   1.893
 9280SOL    HW132687   3.062   7.105   1.930
 9280SOL    HW232688   2.997   7.198   1.813
 9281SOL     OW32689   2.684   6.588   3.234
 9281SOL    HW132690   2.724   6.587   3.142
 9281SOL    HW232691   2.694   6.680   3.274
 9282SOL     OW32692   2.778   6.496   2.153
 9282SOL    HW132693   2.841   6.534   2.085
 9282SOL    HW232694   2.818   6.413   2.192
 9283SOL     OW32695   3.366   7.193   1.906
 9283SOL    HW132696   3.274   7.230   1.913
 9283SOL    HW232697   3.404   7.213   1.816
 9284SOL     OW32698   2.234   6.874   3.352
 9284SOL    HW132699   2.221   6.967   3.318
 9284SOL    HW232700   2.150   6.822   3.339
 9285SOL     OW32701   3.476   6.878   3.151
 9285SOL    HW132702   3.536   6.881   3.231
 9285SOL    HW232703   3.401   6.942   3.164
 9286SOL     OW32704   2.901   6.684   2.558
 9286SOL    HW132705   2.831   6.637   2.612
 9286SOL    HW232706   2.960   6.616   2.515
 9287SOL     OW32707   2.876   5.822   2.833
 9287SOL    HW132708   2.868   5.786   2.740
 9287SOL    HW232709   2.874   5.746   2.898
 9288SOL     OW32710   2.452   7.073   2.353
 9288SOL    HW132711   2.494   7.015   2.283
 9288SOL    HW232712   2.408   7.152   2.309
 9289SOL     OW32713   3.571   5.971   3.243
 9289SOL    HW132714   3.644   6.040   3.247
 9289SOL    HW232715   3.599   5.896   3.184
 9290SOL     OW32716   2.117   6.934   2.152
 9290SOL    HW132717   2.021   6.935   2.125
 9290SOL    HW232718   2.129   6.987   2.236
 9291SOL     OW32719   1.967   6.599   3.588
 9291SOL    HW132720   1.890   6.566   3.642
 9291SOL    HW232721   2.052   6.569   3.630
 9292SOL     OW32722   2.534   5.789   3.351
 9292SOL    HW132723   2.624   5.773   3.311
 9292SOL    HW232724   2.542   5.794   3.450
 9293SOL     OW32725   3.302   6.442   3.260
 9293SOL    HW132726   3.245   6.494   3.197
 9293SOL    HW232727   3.398   6.454   3.236
 9294SOL     OW32728   1.934   5.752   2.180
 9294SOL    HW132729   1.917   5.835   2.126
 9294SOL    HW232730   2.024   5.715   2.158
 9295SOL     OW32731   3.045   6.921   1.981
 9295SOL    HW132732   2.946   6.910   1.983
 9295SOL    HW232733   3.079   6.936   2.074
 9296SOL     OW32734   2.475   6.428   3.293
 9296SOL    HW132735   2.531   6.509   3.276
 9296SOL    HW232736   2.534   6.348   3.296
 9297SOL     OW32737   3.355   7.353   2.821
 9297SOL    HW132738   3.388   7.417   2.752
 9297SOL    HW232739   3.421   7.347   2.896
 9298SOL     OW32740   2.578   6.151   3.570
 9298SOL    HW132741   2.597   6.216   3.644
 9298SOL    HW232742   2.638   6.071   3.579
 9299SOL     OW32743   3.312   6.806   3.495
 9299SOL    HW132744   3.303   6.796   3.594
 9299SOL    HW232745   3.408   6.799   3.469
 9300SOL     OW32746   2.252   7.327   3.422
 9300SOL    HW132747   2.161   7.368   3.420
 9300SOL    HW232748   2.245   7.233   3.454
 9301SOL     OW32749   3.536   6.469   3.116
 9301SOL    HW132750   3.509   6.380   3.079
 9301SOL    HW232751   3.537   6.537   3.043
 9302SOL     OW32752   3.087   5.911   2.311
 9302SOL    HW132753   3.152   5.837   2.300
 9302SOL    HW232754   3.107   5.961   2.395
 9303SOL     OW32755   2.456   6.331   2.514
 9303SOL    HW132756   2.506   6.416   2.495
 9303SOL    HW232757   2.368   6.333   2.466
 9304SOL     OW32758   3.639   5.928   3.504
 9304SOL    HW132759   3.622   5.959   3.410
 9304SOL    HW232760   3.555   5.891   3.542
 9305SOL     OW32761   3.592   6.520   3.379
 9305SOL    HW132762   3.630   6.611   3.394
 9305SOL    HW232763   3.584   6.503   3.280
 9306SOL     OW32764   2.721   6.960   1.878
 9306SOL    HW132765   2.675   6.975   1.966
 9306SOL    HW232766   2.765   7.045   1.848
 9307SOL     OW32767   2.523   7.376   2.815
 9307SOL    HW132768   2.477   7.464   2.802
 9307SOL    HW232769   2.622   7.388   2.808
 9308SOL     OW32770   2.721   6.542   2.723
 9308SOL    HW132771   2.775   6.473   2.771
 9308SOL    HW232772   2.689   6.611   2.789
 9309SOL     OW32773   2.945   6.570   1.949
 9309SOL    HW132774   2.922   6.623   1.867
 9309SOL    HW232775   3.026   6.514   1.930
 9310SOL     OW32776   3.723   7.155   2.713
 9310SOL    HW132777   3.652   7.143   2.643
 9310SOL    HW232778   3.724   7.076   2.773
 9311SOL     OW32779   2.083   6.900   3.706
 9311SOL    HW132780   2.018   6.827   3.685
 9311SOL    HW232781   2.087   6.914   3.804
 9312SOL     OW32782   1.941   6.826   2.515
 9312SOL    HW132783   1.940   6.779   2.603
 9312SOL    HW232784   2.023   6.798   2.464
 9313SOL     OW32785   2.534   6.977   3.486
 9313SOL    HW132786   2.456   6.927   3.524
 9313SOL    HW232787   2.531   7.072   3.517
 9314SOL     OW32788   3.686   5.778   3.089
 9314SOL    HW132789   3.682   5.688   3.133
 9314SOL    HW232790   3.689   5.767   2.990
 9315SOL     OW32791   2.290   6.010   2.382
 9315SOL    HW132792   2.320   5.938   2.320
 9315SOL    HW232793   2.251   5.970   2.465
 9316SOL     OW32794   3.567   7.073   2.966
 9316SOL    HW132795   3.474   7.048   2.939
 9316SOL    HW232796   3.593   7.023   3.048
 9317SOL     OW32797   2.179   6.133   3.142
 9317SOL    HW132798   2.217   6.074   3.214
 9317SOL    HW232799   2.219   6.107   3.054
 9318SOL     OW32800   2.674   7.172   2.549
 9318SOL    HW132801   2.706   7.182   2.455
 9318SOL    HW232802   2.595   7.110   2.551
 9319SOL     OW32803   3.286   5.800   2.974
 9319SOL    HW132804   3.338   5.735   3.029
 9319SOL    HW232805   3.237   5.863   3.035
 9320SOL     OW32806   2.863   5.620   3.016
 9320SOL    HW132807   2.800   5.548   2.985
 9320SOL    HW232808   2.956   5.584   3.016
 9321SOL     OW32809   2.632   6.916   2.163
 9321SOL    HW132810   2.586   6.829   2.180
 9321SOL    HW232811   2.723   6.913   2.204
 9322SOL     OW32812   2.480   7.153   3.146
 9322SOL    HW132813   2.475   7.235   3.203
 9322SOL    HW232814   2.569   7.150   3.101
 9323SOL     OW32815   3.214   5.638   2.030
 9323SOL    HW132816   3.249   5.597   1.946
 9323SOL    HW232817   3.124   5.600   2.050
 9324SOL     OW32818   3.162   6.039   2.553
 9324SOL    HW132819   3.103   6.119   2.557
 9324SOL    HW232820   3.177   6.004   2.646
 9325SOL     OW32821   3.455   5.807   2.744
 9325SOL    HW132822   3.371   5.806   2.798
 9325SOL    HW232823   3.457   5.890   2.688
 9326SOL     OW32824   1.901   6.663   2.162
 9326SOL    HW132825   2.000   6.652   2.153
 9326SOL    HW232826   1.861   6.577   2.194
 9327SOL     OW32827   2.092   6.214   3.837
 9327SOL    HW132828   1.999   6.212   3.874
 9327SOL    HW232829   2.093   6.175   3.745
 9328SOL     OW32830   2.087   5.861   4.720
 9328SOL    HW132831   2.122   5.844   4.812
 9328SOL    HW232832   1.999   5.816   4.708
 9329SOL     OW32833   1.881   5.954   4.371
 9329SOL    HW132834   1.799   5.997   4.410
 9329SOL    HW232835   1.853   5.881   4.308
 9330SOL     OW32836   3.417   7.097   4.427
 9330SOL    HW132837   3.360   7.081   4.508
 9330SOL    HW232838   3.358   7.107   4.347
 9331SOL     OW32839   2.997   6.289   4.441
 9331SOL    HW132840   3.054   6.367   4.416
 9331SOL    HW232841   2.937   6.315   4.517
 9332SOL     OW32842   3.617   6.193   3.955
 9332SOL    HW132843   3.605   6.180   3.856
 9332SOL    HW232844   3.587   6.112   4.004
 9333SOL     OW32845   2.712   6.384   5.547
 9333SOL    HW132846   2.708   6.460   5.612
 9333SOL    HW232847   2.734   6.420   5.456
 9334SOL     OW32848   2.547   6.598   4.389
 9334SOL    HW132849   2.616   6.582   4.459
 9334SOL    HW232850   2.474   6.655   4.427
 9335SOL     OW32851   2.548   6.747   5.527
 9335SOL    HW132852   2.608   6.826   5.541
 9335SOL    HW232853   2.462   6.778   5.486
 9336SOL     OW32854   2.197   7.021   4.785
 9336SOL    HW132855   2.119   6.990   4.732
 9336SOL    HW232856   2.255   7.079   4.728
 9337SOL     OW32857   3.322   7.091   5.063
 9337SOL    HW132858   3.346   7.185   5.089
 9337SOL    HW232859   3.306   7.037   5.145
 9338SOL     OW32860   2.300   5.978   5.223
 9338SOL    HW132861   2.382   5.922   5.232
 9338SOL    HW232862   2.219   5.920   5.227
 9339SOL     OW32863   3.465   6.033   4.461
 9339SOL    HW132864   3.391   6.079   4.411
 9339SOL    HW232865   3.516   6.101   4.514
 9340SOL     OW32866   2.093   7.299   4.207
 9340SOL    HW132867   2.127   7.376   4.261
 9340SOL    HW232868   2.137   7.299   4.117
 9341SOL     OW32869   2.989   6.927   5.414
 9341SOL    HW132870   3.036   6.927   5.502
 9341SOL    HW232871   2.941   6.840   5.403
 9342SOL     OW32872   2.092   7.020   4.262
 9342SOL    HW132873   2.066   7.116   4.262
 9342SOL    HW232874   2.021   6.966   4.307
 9343SOL     OW32875   2.102   6.677   4.610
 9343SOL    HW132876   2.116   6.593   4.662
 9343SOL    HW232877   2.047   6.741   4.665
 9344SOL     OW32878   2.482   7.372   5.163
 9344SOL    HW132879   2.390   7.355   5.198
 9344SOL    HW232880   2.510   7.464   5.189
 9345SOL     OW32881   2.468   6.550   3.847
 9345SOL    HW132882   2.475   6.634   3.793
 9345SOL    HW232883   2.514   6.563   3.935
 9346SOL     OW32884   3.456   5.700   5.204
 9346SOL    HW132885   3.438   5.767   5.132
 9346SOL    HW232886   3.453   5.746   5.293
 9347SOL     OW32887   1.984   6.229   4.287
 9347SOL    HW132888   1.939   6.141   4.304
 9347SOL    HW232889   1.983   6.283   4.371
 9348SOL     OW32890   3.704   7.353   4.083
 9348SOL    HW132891   3.758   7.324   4.163
 9348SOL    HW232892   3.734   7.443   4.054
 9349SOL     OW32893   1.889   7.182   3.841
 9349SOL    HW132894   1.870   7.086   3.862
 9349SOL    HW232895   1.856   7.240   3.916
 9350SOL     OW32896   3.551   6.508   4.336
 9350SOL    HW132897   3.646   6.479   4.344
 9350SOL    HW232898   3.543   6.573   4.261
 9351SOL     OW32899   3.503   6.694   4.156
 9351SOL    HW132900   3.589   6.696   4.104
 9351SOL    HW232901   3.517   6.741   4.244
 9352SOL     OW32902   1.975   6.323   5.321
 9352SOL    HW132903   2.063   6.310   5.366
 9352SOL    HW232904   1.962   6.420   5.299
 9353SOL     OW32905   2.475   6.951   4.450
 9353SOL    HW132906   2.426   6.864   4.459
 9353SOL    HW232907   2.452   6.994   4.363
 9354SOL     OW32908   3.155   6.814   5.147
 9354SOL    HW132909   3.192   6.741   5.089
 9354SOL    HW232910   3.207   6.819   5.232
 9355SOL     OW32911   2.671   5.590   4.226
 9355SOL    HW132912   2.711   5.681   4.217
 9355SOL    HW232913   2.571   5.598   4.232
 9356SOL     OW32914   2.059   6.562   4.988
 9356SOL    HW132915   2.148   6.517   4.974
 9356SOL    HW232916   1.986   6.497   4.969
 9357SOL     OW32917   3.387   6.585   3.914
 9357SOL    HW132918   3.324   6.509   3.927
 9357SOL    HW232919   3.435   6.603   4.000
 9358SOL     OW32920   3.049   7.378   5.340
 9358SOL    HW132921   3.073   7.438   5.264
 9358SOL    HW232922   3.056   7.283   5.310
 9359SOL     OW32923   2.179   5.837   5.525
 9359SOL    HW132924   2.250   5.908   5.531
 9359SOL    HW232925   2.091   5.876   5.553
 9360SOL     OW32926   3.328   7.003   4.677
 9360SOL    HW132927   3.269   7.009   4.757
 9360SOL    HW232928   3.313   6.915   4.631
 9361SOL     OW32929   3.529   7.300   4.296
 9361SOL    HW132930   3.488   7.277   4.208
 9361SOL    HW232931   3.511   7.226   4.361
 9362SOL     OW32932   2.460   6.315   3.994
 9362SOL    HW132933   2.484   6.384   3.926
 9362SOL    HW232934   2.382   6.348   4.048
 9363SOL     OW32935   3.143   5.931   4.668
 9363SOL    HW132936   3.057   5.881   4.655
 9363SOL    HW232937   3.205   5.877   4.724
 9364SOL     OW32938   3.438   7.248   4.031
 9364SOL    HW132939   3.527   7.294   4.034
 9364SOL    HW232940   3.417   7.224   3.936
 9365SOL     OW32941   2.669   6.191   5.189
 9365SOL    HW132942   2.622   6.188   5.278
 9365SOL    HW232943   2.618   6.136   5.123
 9366SOL     OW32944   3.256   6.055   5.398
 9366SOL    HW132945   3.236   6.098   5.486
 9366SOL    HW232946   3.334   5.993   5.407
 9367SOL     OW32947   2.835   6.476   5.296
 9367SOL    HW132948   2.881   6.392   5.267
 9367SOL    HW232949   2.779   6.510   5.221
 9368SOL     OW32950   2.903   6.287   4.153
 9368SOL    HW132951   2.929   6.283   4.249
 9368SOL    HW232952   2.818   6.236   4.139
 9369SOL     OW32953   1.938   6.397   4.513
 9369SOL    HW132954   2.037   6.385   4.522
 9369SOL    HW232955   1.914   6.492   4.534
 9370SOL     OW32956   1.992   7.407   5.295
 9370SOL    HW132957   1.982   7.392   5.394
 9370SOL    HW232958   1.906   7.443   5.259
 9371SOL     OW32959   2.727   5.934   3.919
 9371SOL    HW132960   2.786   5.997   3.870
 9371SOL    HW232961   2.746   5.840   3.890
 9372SOL     OW32962   3.581   6.171   5.555
 9372SOL    HW132963   3.555   6.260   5.519
 9372SOL    HW232964   3.579   6.103   5.482
 9373SOL     OW32965   3.224   6.730   4.269
 9373SOL    HW132966   3.307   6.701   4.221
 9373SOL    HW232967   3.175   6.797   4.213
 9374SOL     OW32968   2.412   5.782   4.609
 9374SOL    HW132969   2.407   5.777   4.709
 9374SOL    HW232970   2.414   5.878   4.580
 9375SOL     OW32971   2.870   7.042   4.201
 9375SOL    HW132972   2.824   7.114   4.149
 9375SOL    HW232973   2.866   7.062   4.299
 9376SOL     OW32974   2.213   7.387   4.577
 9376SOL    HW132975   2.263   7.301   4.583
 9376SOL    HW232976   2.278   7.464   4.574
 9377SOL     OW32977   3.657   6.652   4.597
 9377SOL    HW132978   3.595   6.637   4.521
 9377SOL    HW232979   3.605   6.663   4.682
 9378SOL     OW32980   3.089   7.136   5.230
 9378SOL    HW132981   3.095   7.059   5.294
 9378SOL    HW232982   3.037   7.110   5.150
 9379SOL     OW32983   2.183   6.529   3.966
 9379SOL    HW132984   2.265   6.568   3.924
 9379SOL    HW232985   2.156   6.447   3.917
 9380SOL     OW32986   3.320   6.321   4.452
 9380SOL    HW132987   3.315   6.256   4.527
 9380SOL    HW232988   3.400   6.380   4.465
 9381SOL     OW32989   2.323   6.852   5.451
 9381SOL    HW132990   2.273   6.853   5.365
 9381SOL    HW232991   2.260   6.834   5.527
 9382SOL     OW32992   2.973   7.362   3.961
 9382SOL    HW132993   2.913   7.300   4.011
 9382SOL    HW232994   3.004   7.318   3.876
 9383SOL     OW32995   2.064   5.871   5.222
 9383SOL    HW132996   1.984   5.931   5.209
 9383SOL    HW232997   2.054   5.822   5.308
 9384SOL     OW32998   3.494   6.963   3.805
 9384SOL    HW132999   3.462   7.057   3.795
 9384SOL    HW233000   3.418   6.900   3.793
 9385SOL     OW33001   2.326   7.329   4.047
 9385SOL    HW133002   2.359   7.368   4.133
 9385SOL    HW233003   2.402   7.322   3.982
 9386SOL     OW33004   3.262   5.693   4.150
 9386SOL    HW133005   3.238   5.656   4.060
 9386SOL    HW233006   3.361   5.709   4.154
 9387SOL     OW33007   2.111   7.371   4.965
 9387SOL    HW133008   2.168   7.306   5.015
 9387SOL    HW233009   2.095   7.338   4.872
 9388SOL     OW33010   2.802   7.284   4.628
 9388SOL    HW133011   2.882   7.227   4.649
 9388SOL    HW233012   2.753   7.244   4.551
 9389SOL     OW33013   2.244   6.286   4.204
 9389SOL    HW133014   2.289   6.196   4.201
 9389SOL    HW233015   2.150   6.275   4.237
 9390SOL     OW33016   3.409   5.808   5.453
 9390SOL    HW133017   3.404   5.845   5.545
 9390SOL    HW233018   3.337   5.739   5.441
 9391SOL     OW33019   2.476   5.708   3.841
 9391SOL    HW133020   2.574   5.686   3.848
 9391SOL    HW233021   2.445   5.691   3.748
 9392SOL     OW33022   2.643   5.850   5.473
 9392SOL    HW133023   2.710   5.789   5.516
 9392SOL    HW233024   2.570   5.869   5.538
 9393SOL     OW33025   3.213   6.176   5.157
 9393SOL    HW133026   3.241   6.133   5.242
 9393SOL    HW233027   3.238   6.272   5.158
 9394SOL     OW33028   2.784   6.089   4.623
 9394SOL    HW133029   2.759   6.080   4.527
 9394SOL    HW233030   2.832   6.007   4.654
 9395SOL     OW33031   2.401   5.650   4.236
 9395SOL    HW133032   2.320   5.651   4.294
 9395SOL    HW233033   2.404   5.733   4.181
 9396SOL     OW33034   3.296   6.774   3.765
 9396SOL    HW133035   3.328   6.698   3.822
 9396SOL    HW233036   3.204   6.801   3.795
 9397SOL     OW33037   2.159   5.621   3.895
 9397SOL    HW133038   2.208   5.705   3.874
 9397SOL    HW233039   2.221   5.556   3.940
 9398SOL     OW33040   2.797   5.822   4.204
 9398SOL    HW133041   2.749   5.863   4.126
 9398SOL    HW233042   2.896   5.820   4.185
 9399SOL     OW33043   2.938   6.269   5.188
 9399SOL    HW133044   2.858   6.208   5.191
 9399SOL    HW233045   3.019   6.216   5.164
 9400SOL     OW33046   3.089   7.156   4.517
 9400SOL    HW133047   3.110   7.230   4.452
 9400SOL    HW233048   3.157   7.156   4.590
 9401SOL     OW33049   2.321   6.738   4.465
 9401SOL    HW133050   2.250   6.711   4.530
 9401SOL    HW233051   2.295   6.710   4.372
 9402SOL     OW33052   3.133   7.383   4.315
 9402SOL    HW133053   3.177   7.447   4.251
 9402SOL    HW233054   3.083   7.435   4.385
 9403SOL     OW33055   2.894   6.135   3.740
 9403SOL    HW133056   2.853   6.217   3.701
 9403SOL    HW233057   2.958   6.161   3.813
 9404SOL     OW33058   1.940   6.142   5.110
 9404SOL    HW133059   2.032   6.141   5.069
 9404SOL    HW233060   1.934   6.216   5.177
 9405SOL     OW33061   2.423   5.808   4.871
 9405SOL    HW133062   2.461   5.724   4.908
 9405SOL    HW233063   2.335   5.827   4.915
 9406SOL     OW33064   2.728   6.040   4.366
 9406SOL    HW133065   2.696   6.112   4.304
 9406SOL    HW233066   2.752   5.959   4.313
 9407SOL     OW33067   2.879   5.625   4.477
 9407SOL    HW133068   2.807   5.630   4.408
 9407SOL    HW233069   2.855   5.556   4.546
 9408SOL     OW33070   3.291   6.759   4.591
 9408SOL    HW133071   3.236   6.675   4.584
 9408SOL    HW233072   3.317   6.788   4.499
 9409SOL     OW33073   3.328   6.176   4.716
 9409SOL    HW133074   3.298   6.081   4.723
 9409SOL    HW233075   3.401   6.192   4.782
 9410SOL     OW33076   3.719   6.419   4.101
 9410SOL    HW133077   3.761   6.355   4.165
 9410SOL    HW233078   3.681   6.368   4.023
 9411SOL     OW33079   2.350   6.971   3.898
 9411SOL    HW133080   2.263   6.956   3.945
 9411SOL    HW233081   2.333   6.997   3.803
 9412SOL     OW33082   3.526   6.866   4.381
 9412SOL    HW133083   3.625   6.874   4.395
 9412SOL    HW233084   3.481   6.950   4.412
 9413SOL     OW33085   3.252   6.161   3.802
 9413SOL    HW133086   3.198   6.140   3.883
 9413SOL    HW233087   3.343   6.120   3.811
 9414SOL     OW33088   2.389   5.842   4.052
 9414SOL    HW133089   2.416   5.783   3.977
 9414SOL    HW233090   2.389   5.937   4.021
 9415SOL     OW33091   3.616   6.809   5.312
 9415SOL    HW133092   3.707   6.770   5.299
 9415SOL    HW233093   3.624   6.905   5.336
 9416SOL     OW33094   2.926   6.933   5.064
 9416SOL    HW133095   2.846   6.910   5.119
 9416SOL    HW233096   3.009   6.907   5.113
 9417SOL     OW33097   3.454   7.215   5.349
 9417SOL    HW133098   3.481   7.249   5.259
 9417SOL    HW233099   3.533   7.177   5.395
 9418SOL     OW33100   2.973   6.781   4.824
 9418SOL    HW133101   2.933   6.825   4.905
 9418SOL    HW233102   2.932   6.818   4.741
 9419SOL     OW33103   3.500   6.685   4.803
 9419SOL    HW133104   3.505   6.766   4.862
 9419SOL    HW233105   3.414   6.687   4.752
 9420SOL     OW33106   2.777   5.675   5.126
 9420SOL    HW133107   2.802   5.655   5.031
 9420SOL    HW233108   2.849   5.731   5.168
 9421SOL     OW33109   2.842   6.702   5.443
 9421SOL    HW133110   2.743   6.708   5.453
 9421SOL    HW233111   2.865   6.622   5.387
 9422SOL     OW33112   2.567   6.636   4.092
 9422SOL    HW133113   2.553   6.643   4.191
 9422SOL    HW233114   2.651   6.585   4.074
 9423SOL     OW33115   2.272   6.399   4.975
 9423SOL    HW133116   2.358   6.411   5.025
 9423SOL    HW233117   2.230   6.312   5.002
 9424SOL     OW33118   3.136   5.972   4.986
 9424SOL    HW133119   3.157   6.046   5.050
 9424SOL    HW233120   3.047   5.989   4.943
 9425SOL     OW33121   1.926   7.150   5.055
 9425SOL    HW133122   1.880   7.232   5.021
 9425SOL    HW233123   2.024   7.169   5.064
 9426SOL     OW33124   2.229   6.686   4.225
 9426SOL    HW133125   2.222   6.769   4.169
 9426SOL    HW233126   2.233   6.606   4.165
 9427SOL     OW33127   2.428   6.123   4.589
 9427SOL    HW133128   2.440   6.189   4.515
 9427SOL    HW233129   2.474   6.157   4.672
 9428SOL     OW33130   3.114   6.934   4.112
 9428SOL    HW133131   3.164   7.011   4.152
 9428SOL    HW233132   3.019   6.936   4.144
 9429SOL     OW33133   3.134   7.031   4.866
 9429SOL    HW133134   3.181   7.044   4.953
 9429SOL    HW233135   3.068   6.957   4.875
 9430SOL     OW33136   3.444   6.225   4.196
 9430SOL    HW133137   3.413   6.286   4.269
 9430SOL    HW233138   3.494   6.277   4.127
 9431SOL     OW33139   2.264   6.337   5.322
 9431SOL    HW133140   2.332   6.392   5.275
 9431SOL    HW233141   2.304   6.249   5.349
 9432SOL     OW33142   3.449   6.365   5.394
 9432SOL    HW133143   3.357   6.403   5.389
 9432SOL    HW233144   3.509   6.412   5.329
 9433SOL     OW33145   2.875   5.691   5.494
 9433SOL    HW133146   2.881   5.776   5.442
 9433SOL    HW233147   2.907   5.615   5.437
 9434SOL     OW33148   2.366   5.636   5.464
 9434SOL    HW133149   2.324   5.579   5.394
 9434SOL    HW233150   2.300   5.705   5.496
 9435SOL     OW33151   2.435   6.456   4.753
 9435SOL    HW133152   2.479   6.545   4.744
 9435SOL    HW233153   2.372   6.456   4.830
 9436SOL     OW33154   3.222   6.448   4.769
 9436SOL    HW133155   3.147   6.448   4.703
 9436SOL    HW233156   3.259   6.356   4.778
 9437SOL     OW33157   3.071   6.111   3.999
 9437SOL    HW133158   3.084   6.027   4.053
 9437SOL    HW233159   3.042   6.185   4.059
 9438SOL     OW33160   2.169   5.799   4.955
 9438SOL    HW133161   2.146   5.836   5.045
 9438SOL    HW233162   2.139   5.704   4.949
 9439SOL     OW33163   1.899   6.896   5.006
 9439SOL    HW133164   1.952   6.847   5.074
 9439SOL    HW233165   1.921   6.994   5.011
 9440SOL     OW33166   2.594   6.220   4.788
 9440SOL    HW133167   2.653   6.194   4.712
 9440SOL    HW233168   2.566   6.316   4.777
 9441SOL     OW33169   3.590   6.521   5.578
 9441SOL    HW133170   3.544   6.514   5.489
 9441SOL    HW233171   3.528   6.565   5.644
 9442SOL     OW33172   3.484   5.953   4.098
 9442SOL    HW133173   3.486   5.877   4.162
 9442SOL    HW233174   3.436   6.030   4.138
 9443SOL     OW33175   2.885   6.352   4.690
 9443SOL    HW133176   2.900   6.373   4.786
 9443SOL    HW233177   2.855   6.257   4.681
 9444SOL     OW33178   2.842   7.159   5.424
 9444SOL    HW133179   2.822   7.203   5.336
 9444SOL    HW233180   2.881   7.068   5.408
 9445SOL     OW33181   3.721   7.104   5.329
 9445SOL    HW133182   3.735   7.131   5.234
 9445SOL    HW233183   3.804   7.126   5.382
 9446SOL     OW33184   2.212   6.484   5.528
 9446SOL    HW133185   2.288   6.528   5.576
 9446SOL    HW233186   2.247   6.437   5.446
 9447SOL     OW33187   3.402   5.860   3.849
 9447SOL    HW133188   3.341   5.785   3.872
 9447SOL    HW233189   3.424   5.912   3.932
 9448SOL     OW33190   3.165   6.424   3.766
 9448SOL    HW133191   3.199   6.331   3.781
 9448SOL    HW233192   3.183   6.451   3.671
 9449SOL     OW33193   2.930   6.919   4.573
 9449SOL    HW133194   2.937   6.835   4.518
 9449SOL    HW233195   2.992   6.988   4.537
 9450SOL     OW33196   2.181   6.396   4.673
 9450SOL    HW133197   2.274   6.432   4.678
 9450SOL    HW233198   2.175   6.311   4.725
 9451SOL     OW33199   2.201   6.095   4.730
 9451SOL    HW133200   2.149   6.012   4.713
 9451SOL    HW233201   2.278   6.100   4.666
 9452SOL     OW33202   3.000   5.966   5.402
 9452SOL    HW133203   2.955   6.029   5.466
 9452SOL    HW233204   3.093   5.997   5.385
 9453SOL     OW33205   3.022   5.793   5.201
 9453SOL    HW133206   3.022   5.857   5.278
 9453SOL    HW233207   3.050   5.841   5.118
 9454SOL     OW33208   1.870   6.912   3.924
 9454SOL    HW133209   1.777   6.933   3.893
 9454SOL    HW233210   1.880   6.813   3.937
 9455SOL     OW33211   1.950   7.387   4.651
 9455SOL    HW133212   1.908   7.301   4.624
 9455SOL    HW233213   2.044   7.390   4.617
 9456SOL     OW33214   2.366   7.154   4.634
 9456SOL    HW133215   2.432   7.228   4.643
 9456SOL    HW233216   2.410   7.075   4.592
 9457SOL     OW33217   2.864   6.382   4.962
 9457SOL    HW133218   2.905   6.350   5.048
 9457SOL    HW233219   2.768   6.355   4.959
 9458SOL     OW33220   1.902   6.130   4.838
 9458SOL    HW133221   1.987   6.097   4.797
 9458SOL    HW233222   1.915   6.145   4.936
 9459SOL     OW33223   2.051   6.106   5.446
 9459SOL    HW133224   2.110   6.066   5.376
 9459SOL    HW233225   1.993   6.177   5.405
 9460SOL     OW33226   3.231   6.536   5.384
 9460SOL    HW133227   3.270   6.625   5.404
 9460SOL    HW233228   3.241   6.516   5.287
 9461SOL     OW33229   2.677   6.158   4.049
 9461SOL    HW133230   2.684   6.069   4.003
 9461SOL    HW233231   2.583   6.192   4.041
 9462SOL     OW33232   3.519   6.190   4.930
 9462SOL    HW133233   3.481   6.121   4.992
 9462SOL    HW233234   3.601   6.154   4.886
 9463SOL     OW33235   2.114   7.150   5.468
 9463SOL    HW133236   2.084   7.207   5.544
 9463SOL    HW233237   2.107   7.053   5.494
 9464SOL     OW33238   2.533   6.050   4.993
 9464SOL    HW133239   2.499   5.961   4.963
 9464SOL    HW233240   2.559   6.104   4.913
 9465SOL     OW33241   2.792   7.264   5.189
 9465SOL    HW133242   2.768   7.246   5.094
 9465SOL    HW233243   2.822   7.358   5.199
 9466SOL     OW33244   2.335   6.086   3.915
 9466SOL    HW133245   2.396   6.166   3.919
 9466SOL    HW233246   2.240   6.117   3.922
 9467SOL     OW33247   2.021   6.723   5.190
 9467SOL    HW133248   2.043   6.662   5.266
 9467SOL    HW233249   2.031   6.674   5.104
 9468SOL     OW33250   3.209   6.645   4.958
 9468SOL    HW133251   3.233   6.582   4.884
 9468SOL    HW233252   3.119   6.685   4.940
 9469SOL     OW33253   3.164   6.441   4.033
 9469SOL    HW133254   3.078   6.410   4.075
 9469SOL    HW233255   3.160   6.427   3.934
 9470SOL     OW33256   3.621   7.333   4.878
 9470SOL    HW133257   3.682   7.363   4.805
 9470SOL    HW233258   3.583   7.244   4.856
 9471SOL     OW33259   3.114   7.317   4.852
 9471SOL    HW133260   3.198   7.322   4.798
 9471SOL    HW233261   3.091   7.221   4.870
 9472SOL     OW33262   1.945   6.844   4.746
 9472SOL    HW133263   1.940   6.843   4.846
 9472SOL    HW233264   1.862   6.803   4.708
 9473SOL     OW33265   2.550   7.248   5.440
 9473SOL    HW133266   2.494   7.329   5.449
 9473SOL    HW233267   2.602   7.252   5.354
 9474SOL     OW33268   3.588   5.721   4.247
 9474SOL    HW133269   3.661   5.704   4.180
 9474SOL    HW233270   3.557   5.634   4.285
 9475SOL     OW33271   3.250   7.159   4.201
 9475SOL    HW133272   3.317   7.171   4.127
 9475SOL    HW233273   3.210   7.248   4.224
 9476SOL     OW33274   1.992   7.380   5.575
 9476SOL    HW133275   1.951   7.306   5.628
 9476SOL    HW233276   2.056   7.431   5.633
 9477SOL     OW33277   3.142   6.513   4.396
 9477SOL    HW133278   3.202   6.432   4.398
 9477SOL    HW233279   3.182   6.582   4.336
 9478SOL     OW33280   2.692   6.859   5.146
 9478SOL    HW133281   2.687   6.892   5.241
 9478SOL    HW233282   2.606   6.878   5.100
 9479SOL     OW33283   2.534   7.202   3.878
 9479SOL    HW133284   2.543   7.212   3.779
 9479SOL    HW233285   2.494   7.113   3.899
 9480SOL     OW33286   3.512   7.306   5.118
 9480SOL    HW133287   3.565   7.316   5.034
 9480SOL    HW233288   3.485   7.396   5.152
 9481SOL     OW33289   2.125   5.912   4.444
 9481SOL    HW133290   2.046   5.963   4.410
 9481SOL    HW233291   2.116   5.897   4.542
 9482SOL     OW33292   3.056   7.198   3.755
 9482SOL    HW133293   3.062   7.105   3.792
 9482SOL    HW233294   2.997   7.198   3.675
 9483SOL     OW33295   2.684   6.588   5.096
 9483SOL    HW133296   2.724   6.587   5.004
 9483SOL    HW233297   2.694   6.680   5.136
 9484SOL     OW33298   2.778   6.496   4.015
 9484SOL    HW133299   2.841   6.534   3.947
 9484SOL    HW233300   2.818   6.413   4.054
 9485SOL     OW33301   3.366   7.193   3.768
 9485SOL    HW133302   3.274   7.230   3.775
 9485SOL    HW233303   3.404   7.213   3.678
 9486SOL     OW33304   2.234   6.874   5.214
 9486SOL    HW133305   2.221   6.967   5.180
 9486SOL    HW233306   2.150   6.822   5.201
 9487SOL     OW33307   3.476   6.878   5.013
 9487SOL    HW133308   3.536   6.881   5.093
 9487SOL    HW233309   3.401   6.942   5.026
 9488SOL     OW33310   2.901   6.684   4.420
 9488SOL    HW133311   2.831   6.637   4.474
 9488SOL    HW233312   2.960   6.616   4.377
 9489SOL     OW33313   2.876   5.822   4.695
 9489SOL    HW133314   2.868   5.786   4.602
 9489SOL    HW233315   2.874   5.746   4.760
 9490SOL     OW33316   2.452   7.073   4.215
 9490SOL    HW133317   2.494   7.015   4.145
 9490SOL    HW233318   2.408   7.152   4.171
 9491SOL     OW33319   3.571   5.971   5.105
 9491SOL    HW133320   3.644   6.040   5.109
 9491SOL    HW233321   3.599   5.896   5.046
 9492SOL     OW33322   2.117   6.934   4.014
 9492SOL    HW133323   2.021   6.935   3.987
 9492SOL    HW233324   2.129   6.987   4.098
 9493SOL     OW33325   1.967   6.599   5.450
 9493SOL    HW133326   1.890   6.566   5.504
 9493SOL    HW233327   2.052   6.569   5.492
 9494SOL     OW33328   2.534   5.789   5.213
 9494SOL    HW133329   2.624   5.773   5.173
 9494SOL    HW233330   2.542   5.794   5.312
 9495SOL     OW33331   1.937   5.931   3.757
 9495SOL    HW133332   1.845   5.903   3.728
 9495SOL    HW233333   1.968   6.008   3.701
 9496SOL     OW33334   1.934   5.752   4.042
 9496SOL    HW133335   1.917   5.835   3.988
 9496SOL    HW233336   2.024   5.715   4.020
 9497SOL     OW33337   3.045   6.921   3.843
 9497SOL    HW133338   2.946   6.910   3.845
 9497SOL    HW233339   3.079   6.936   3.936
 9498SOL     OW33340   2.475   6.428   5.155
 9498SOL    HW133341   2.531   6.509   5.138
 9498SOL    HW233342   2.534   6.348   5.158
 9499SOL     OW33343   3.355   7.353   4.683
 9499SOL    HW133344   3.388   7.417   4.614
 9499SOL    HW233345   3.421   7.347   4.758
 9500SOL     OW33346   2.578   6.151   5.432
 9500SOL    HW133347   2.597   6.216   5.506
 9500SOL    HW233348   2.638   6.071   5.441
 9501SOL     OW33349   3.312   6.806   5.357
 9501SOL    HW133350   3.303   6.796   5.456
 9501SOL    HW233351   3.408   6.799   5.331
 9502SOL     OW33352   2.252   7.327   5.284
 9502SOL    HW133353   2.161   7.368   5.282
 9502SOL    HW233354   2.245   7.233   5.316
 9503SOL     OW33355   3.536   6.469   4.978
 9503SOL    HW133356   3.509   6.380   4.941
 9503SOL    HW233357   3.537   6.537   4.905
 9504SOL     OW33358   3.087   5.911   4.173
 9504SOL    HW133359   3.152   5.837   4.162
 9504SOL    HW233360   3.107   5.961   4.257
 9505SOL     OW33361   2.456   6.331   4.376
 9505SOL    HW133362   2.506   6.416   4.357
 9505SOL    HW233363   2.368   6.333   4.328
 9506SOL     OW33364   3.639   5.928   5.366
 9506SOL    HW133365   3.622   5.959   5.272
 9506SOL    HW233366   3.555   5.891   5.404
 9507SOL     OW33367   3.592   6.520   5.241
 9507SOL    HW133368   3.630   6.611   5.256
 9507SOL    HW233369   3.584   6.503   5.142
 9508SOL     OW33370   2.721   6.960   3.740
 9508SOL    HW133371   2.675   6.975   3.828
 9508SOL    HW233372   2.765   7.045   3.710
 9509SOL     OW33373   2.721   6.542   4.585
 9509SOL    HW133374   2.775   6.473   4.633
 9509SOL    HW233375   2.689   6.611   4.651
 9510SOL     OW33376   2.945   6.570   3.811
 9510SOL    HW133377   2.922   6.623   3.729
 9510SOL    HW233378   3.026   6.514   3.792
 9511SOL     OW33379   3.723   7.155   4.575
 9511SOL    HW133380   3.652   7.143   4.505
 9511SOL    HW233381   3.724   7.076   4.635
 9512SOL     OW33382   2.083   6.900   5.568
 9512SOL    HW133383   2.018   6.827   5.547
 9512SOL    HW233384   2.087   6.914   5.666
 9513SOL     OW33385   1.941   6.826   4.377
 9513SOL    HW133386   1.940   6.779   4.465
 9513SOL    HW233387   2.023   6.798   4.326
 9514SOL     OW33388   2.534   6.977   5.348
 9514SOL    HW133389   2.456   6.927   5.386
 9514SOL    HW233390   2.531   7.072   5.379
 9515SOL     OW33391   3.686   5.778   4.951
 9515SOL    HW133392   3.682   5.688   4.995
 9515SOL    HW233393   3.689   5.767   4.852
 9516SOL     OW33394   2.290   6.010   4.244
 9516SOL    HW133395   2.320   5.938   4.182
 9516SOL    HW233396   2.251   5.970   4.327
 9517SOL     OW33397   3.567   7.073   4.828
 9517SOL    HW133398   3.474   7.048   4.801
 9517SOL    HW233399   3.593   7.023   4.910
 9518SOL     OW33400   2.179   6.133   5.004
 9518SOL    HW133401   2.217   6.074   5.076
 9518SOL    HW233402   2.219   6.107   4.916
 9519SOL     OW33403   2.674   7.172   4.411
 9519SOL    HW133404   2.706   7.182   4.317
 9519SOL    HW233405   2.595   7.110   4.413
 9520SOL     OW33406   3.286   5.800   4.836
 9520SOL    HW133407   3.338   5.735   4.891
 9520SOL    HW233408   3.237   5.863   4.897
 9521SOL     OW33409   2.863   5.620   4.878
 9521SOL    HW133410   2.800   5.548   4.847
 9521SOL    HW233411   2.956   5.584   4.878
 9522SOL     OW33412   2.632   6.916   4.025
 9522SOL    HW133413   2.586   6.829   4.042
 9522SOL    HW233414   2.723   6.913   4.066
 9523SOL     OW33415   3.214   5.638   3.892
 9523SOL    HW133416   3.249   5.597   3.808
 9523SOL    HW233417   3.124   5.600   3.912
 9524SOL     OW33418   3.162   6.039   4.415
 9524SOL    HW133419   3.103   6.119   4.419
 9524SOL    HW233420   3.177   6.004   4.508
 9525SOL     OW33421   3.455   5.807   4.606
 9525SOL    HW133422   3.371   5.806   4.660
 9525SOL    HW233423   3.457   5.890   4.550
 9526SOL     OW33424   1.901   6.663   4.024
 9526SOL    HW133425   2.000   6.652   4.015
 9526SOL    HW233426   1.861   6.577   4.056
 9527SOL     OW33427   2.737   7.232   4.061
 9527SOL    HW133428   2.660   7.197   4.007
 9527SOL    HW233429   2.705   7.303   4.123
 9528SOL     OW33430   2.092   6.214   5.699
 9528SOL    HW133431   1.999   6.212   5.736
 9528SOL    HW233432   2.093   6.175   5.607
 9529SOL     OW33433   2.087   5.861   6.582
 9529SOL    HW133434   2.122   5.844   6.674
 9529SOL    HW233435   1.999   5.816   6.570
 9530SOL     OW33436   2.431   6.861   6.751
 9530SOL    HW133437   2.338   6.854   6.714
 9530SOL    HW233438   2.442   6.950   6.795
 9531SOL     OW33439   3.417   7.097   6.289
 9531SOL    HW133440   3.360   7.081   6.370
 9531SOL    HW233441   3.358   7.107   6.209
 9532SOL     OW33442   2.997   6.289   6.303
 9532SOL    HW133443   3.054   6.367   6.278
 9532SOL    HW233444   2.937   6.315   6.379
 9533SOL     OW33445   3.617   6.193   5.817
 9533SOL    HW133446   3.605   6.180   5.718
 9533SOL    HW233447   3.587   6.112   5.866
 9534SOL     OW33448   2.630   6.730   6.609
 9534SOL    HW133449   2.552   6.747   6.669
 9534SOL    HW233450   2.664   6.817   6.573
 9535SOL     OW33451   2.712   6.384   7.409
 9535SOL    HW133452   2.708   6.460   7.474
 9535SOL    HW233453   2.734   6.420   7.318
 9536SOL     OW33454   2.547   6.598   6.251
 9536SOL    HW133455   2.616   6.582   6.321
 9536SOL    HW233456   2.474   6.655   6.289
 9537SOL     OW33457   2.548   6.747   7.389
 9537SOL    HW133458   2.608   6.826   7.403
 9537SOL    HW233459   2.462   6.778   7.348
 9538SOL     OW33460   2.197   7.021   6.647
 9538SOL    HW133461   2.119   6.990   6.594
 9538SOL    HW233462   2.255   7.079   6.590
 9539SOL     OW33463   3.322   7.091   6.925
 9539SOL    HW133464   3.346   7.185   6.951
 9539SOL    HW233465   3.306   7.037   7.007
 9540SOL     OW33466   2.300   5.978   7.085
 9540SOL    HW133467   2.382   5.922   7.094
 9540SOL    HW233468   2.219   5.920   7.089
 9541SOL     OW33469   3.465   6.033   6.323
 9541SOL    HW133470   3.391   6.079   6.273
 9541SOL    HW233471   3.516   6.101   6.376
 9542SOL     OW33472   2.093   7.299   6.069
 9542SOL    HW133473   2.127   7.376   6.123
 9542SOL    HW233474   2.137   7.299   5.979
 9543SOL     OW33475   2.989   6.927   7.276
 9543SOL    HW133476   3.036   6.927   7.364
 9543SOL    HW233477   2.941   6.840   7.265
 9544SOL     OW33478   2.092   7.020   6.124
 9544SOL    HW133479   2.066   7.116   6.124
 9544SOL    HW233480   2.021   6.966   6.169
 9545SOL     OW33481   2.102   6.677   6.472
 9545SOL    HW133482   2.116   6.593   6.524
 9545SOL    HW233483   2.047   6.741   6.527
 9546SOL     OW33484   2.482   7.372   7.025
 9546SOL    HW133485   2.390   7.355   7.060
 9546SOL    HW233486   2.510   7.464   7.051
 9547SOL     OW33487   2.468   6.550   5.709
 9547SOL    HW133488   2.475   6.634   5.655
 9547SOL    HW233489   2.514   6.563   5.797
 9548SOL     OW33490   3.456   5.700   7.066
 9548SOL    HW133491   3.438   5.767   6.994
 9548SOL    HW233492   3.453   5.746   7.155
 9549SOL     OW33493   3.704   7.353   5.945
 9549SOL    HW133494   3.758   7.324   6.025
 9549SOL    HW233495   3.734   7.443   5.916
 9550SOL     OW33496   1.889   7.182   5.703
 9550SOL    HW133497   1.870   7.086   5.724
 9550SOL    HW233498   1.856   7.240   5.778
 9551SOL     OW33499   3.551   6.508   6.198
 9551SOL    HW133500   3.646   6.479   6.206
 9551SOL    HW233501   3.543   6.573   6.123
 9552SOL     OW33502   3.503   6.694   6.018
 9552SOL    HW133503   3.589   6.696   5.966
 9552SOL    HW233504   3.517   6.741   6.106
 9553SOL     OW33505   1.975   6.323   7.183
 9553SOL    HW133506   2.063   6.310   7.228
 9553SOL    HW233507   1.962   6.420   7.161
 9554SOL     OW33508   2.475   6.951   6.312
 9554SOL    HW133509   2.426   6.864   6.321
 9554SOL    HW233510   2.452   6.994   6.225
 9555SOL     OW33511   2.671   5.590   6.088
 9555SOL    HW133512   2.711   5.681   6.079
 9555SOL    HW233513   2.571   5.598   6.094
 9556SOL     OW33514   2.059   6.562   6.850
 9556SOL    HW133515   2.148   6.517   6.836
 9556SOL    HW233516   1.986   6.497   6.831
 9557SOL     OW33517   3.387   6.585   5.776
 9557SOL    HW133518   3.324   6.509   5.789
 9557SOL    HW233519   3.435   6.603   5.862
 9558SOL     OW33520   3.049   7.378   7.202
 9558SOL    HW133521   3.073   7.438   7.126
 9558SOL    HW233522   3.056   7.283   7.172
 9559SOL     OW33523   2.179   5.837   7.387
 9559SOL    HW133524   2.250   5.908   7.393
 9559SOL    HW233525   2.091   5.876   7.415
 9560SOL     OW33526   3.328   7.003   6.539
 9560SOL    HW133527   3.269   7.009   6.619
 9560SOL    HW233528   3.313   6.915   6.493
 9561SOL     OW33529   3.529   7.300   6.158
 9561SOL    HW133530   3.488   7.277   6.070
 9561SOL    HW233531   3.511   7.226   6.223
 9562SOL     OW33532   2.460   6.315   5.856
 9562SOL    HW133533   2.484   6.384   5.788
 9562SOL    HW233534   2.382   6.348   5.910
 9563SOL     OW33535   3.143   5.931   6.530
 9563SOL    HW133536   3.057   5.881   6.517
 9563SOL    HW233537   3.205   5.877   6.586
 9564SOL     OW33538   3.438   7.248   5.893
 9564SOL    HW133539   3.527   7.294   5.896
 9564SOL    HW233540   3.417   7.224   5.798
 9565SOL     OW33541   2.669   6.191   7.051
 9565SOL    HW133542   2.622   6.188   7.140
 9565SOL    HW233543   2.618   6.136   6.985
 9566SOL     OW33544   3.256   6.055   7.260
 9566SOL    HW133545   3.236   6.098   7.348
 9566SOL    HW233546   3.334   5.993   7.269
 9567SOL     OW33547   2.835   6.476   7.158
 9567SOL    HW133548   2.881   6.392   7.129
 9567SOL    HW233549   2.779   6.510   7.083
 9568SOL     OW33550   2.853   5.996   6.828
 9568SOL    HW133551   2.776   6.030   6.882
 9568SOL    HW233552   2.819   5.945   6.749
 9569SOL     OW33553   2.903   6.287   6.015
 9569SOL    HW133554   2.929   6.283   6.111
 9569SOL    HW233555   2.818   6.236   6.001
 9570SOL     OW33556   1.938   6.397   6.375
 9570SOL    HW133557   2.037   6.385   6.384
 9570SOL    HW233558   1.914   6.492   6.396
 9571SOL     OW33559   1.992   7.407   7.157
 9571SOL    HW133560   1.982   7.392   7.256
 9571SOL    HW233561   1.906   7.443   7.121
 9572SOL     OW33562   2.727   5.934   5.781
 9572SOL    HW133563   2.786   5.997   5.732
 9572SOL    HW233564   2.746   5.840   5.752
 9573SOL     OW33565   3.581   6.171   7.417
 9573SOL    HW133566   3.555   6.260   7.381
 9573SOL    HW233567   3.579   6.103   7.344
 9574SOL     OW33568   3.224   6.730   6.131
 9574SOL    HW133569   3.307   6.701   6.083
 9574SOL    HW233570   3.175   6.797   6.075
 9575SOL     OW33571   2.412   5.782   6.471
 9575SOL    HW133572   2.407   5.777   6.571
 9575SOL    HW233573   2.414   5.878   6.442
 9576SOL     OW33574   2.870   7.042   6.063
 9576SOL    HW133575   2.824   7.114   6.011
 9576SOL    HW233576   2.866   7.062   6.161
 9577SOL     OW33577   2.213   7.387   6.439
 9577SOL    HW133578   2.263   7.301   6.445
 9577SOL    HW233579   2.278   7.464   6.436
 9578SOL     OW33580   3.657   6.652   6.459
 9578SOL    HW133581   3.595   6.637   6.383
 9578SOL    HW233582   3.605   6.663   6.544
 9579SOL     OW33583   3.089   7.136   7.092
 9579SOL    HW133584   3.095   7.059   7.156
 9579SOL    HW233585   3.037   7.110   7.012
 9580SOL     OW33586   2.183   6.529   5.828
 9580SOL    HW133587   2.265   6.568   5.786
 9580SOL    HW233588   2.156   6.447   5.779
 9581SOL     OW33589   3.320   6.321   6.314
 9581SOL    HW133590   3.315   6.256   6.389
 9581SOL    HW233591   3.400   6.380   6.327
 9582SOL     OW33592   2.323   6.852   7.313
 9582SOL    HW133593   2.273   6.853   7.227
 9582SOL    HW233594   2.260   6.834   7.389
 9583SOL     OW33595   2.064   5.871   7.084
 9583SOL    HW133596   1.984   5.931   7.071
 9583SOL    HW233597   2.054   5.822   7.170
 9584SOL     OW33598   3.494   6.963   5.667
 9584SOL    HW133599   3.462   7.057   5.657
 9584SOL    HW233600   3.418   6.900   5.655
 9585SOL     OW33601   2.326   7.329   5.909
 9585SOL    HW133602   2.359   7.368   5.995
 9585SOL    HW233603   2.402   7.322   5.844
 9586SOL     OW33604   3.262   5.693   6.012
 9586SOL    HW133605   3.238   5.656   5.922
 9586SOL    HW233606   3.361   5.709   6.016
 9587SOL     OW33607   2.111   7.371   6.827
 9587SOL    HW133608   2.168   7.306   6.877
 9587SOL    HW233609   2.095   7.338   6.734
 9588SOL     OW33610   2.802   7.284   6.490
 9588SOL    HW133611   2.882   7.227   6.511
 9588SOL    HW233612   2.753   7.244   6.413
 9589SOL     OW33613   2.244   6.286   6.066
 9589SOL    HW133614   2.289   6.196   6.063
 9589SOL    HW233615   2.150   6.275   6.099
 9590SOL     OW33616   3.409   5.808   7.315
 9590SOL    HW133617   3.404   5.845   7.407
 9590SOL    HW233618   3.337   5.739   7.303
 9591SOL     OW33619   2.476   5.708   5.703
 9591SOL    HW133620   2.574   5.686   5.710
 9591SOL    HW233621   2.445   5.691   5.610
 9592SOL     OW33622   2.643   5.850   7.335
 9592SOL    HW133623   2.710   5.789   7.378
 9592SOL    HW233624   2.570   5.869   7.400
 9593SOL     OW33625   2.750   7.100   6.781
 9593SOL    HW133626   2.727   7.075   6.687
 9593SOL    HW233627   2.811   7.031   6.820
 9594SOL     OW33628   3.213   6.176   7.019
 9594SOL    HW133629   3.241   6.133   7.104
 9594SOL    HW233630   3.238   6.272   7.020
 9595SOL     OW33631   2.665   6.988   6.510
 9595SOL    HW133632   2.755   7.002   6.468
 9595SOL    HW233633   2.594   6.990   6.439
 9596SOL     OW33634   2.784   6.089   6.485
 9596SOL    HW133635   2.759   6.080   6.389
 9596SOL    HW233636   2.832   6.007   6.516
 9597SOL     OW33637   2.401   5.650   6.098
 9597SOL    HW133638   2.320   5.651   6.156
 9597SOL    HW233639   2.404   5.733   6.043
 9598SOL     OW33640   3.296   6.774   5.627
 9598SOL    HW133641   3.328   6.698   5.684
 9598SOL    HW233642   3.204   6.801   5.657
 9599SOL     OW33643   2.159   5.621   5.757
 9599SOL    HW133644   2.208   5.705   5.736
 9599SOL    HW233645   2.221   5.556   5.802
 9600SOL     OW33646   2.797   5.822   6.066
 9600SOL    HW133647   2.749   5.863   5.988
 9600SOL    HW233648   2.896   5.820   6.047
 9601SOL     OW33649   2.938   6.269   7.050
 9601SOL    HW133650   2.858   6.208   7.053
 9601SOL    HW233651   3.019   6.216   7.026
 9602SOL     OW33652   3.089   7.156   6.379
 9602SOL    HW133653   3.110   7.230   6.314
 9602SOL    HW233654   3.157   7.156   6.452
 9603SOL     OW33655   2.321   6.738   6.327
 9603SOL    HW133656   2.250   6.711   6.392
 9603SOL    HW233657   2.295   6.710   6.234
 9604SOL     OW33658   3.133   7.383   6.177
 9604SOL    HW133659   3.177   7.447   6.113
 9604SOL    HW233660   3.083   7.435   6.247
 9605SOL     OW33661   2.894   6.135   5.602
 9605SOL    HW133662   2.853   6.217   5.563
 9605SOL    HW233663   2.958   6.161   5.675
 9606SOL     OW33664   1.940   6.142   6.972
 9606SOL    HW133665   2.032   6.141   6.931
 9606SOL    HW233666   1.934   6.216   7.039
 9607SOL     OW33667   2.423   5.808   6.733
 9607SOL    HW133668   2.461   5.724   6.770
 9607SOL    HW233669   2.335   5.827   6.777
 9608SOL     OW33670   2.728   6.040   6.228
 9608SOL    HW133671   2.696   6.112   6.166
 9608SOL    HW233672   2.752   5.959   6.175
 9609SOL     OW33673   2.879   5.625   6.339
 9609SOL    HW133674   2.807   5.630   6.270
 9609SOL    HW233675   2.855   5.556   6.408
 9610SOL     OW33676   3.291   6.759   6.453
 9610SOL    HW133677   3.236   6.675   6.446
 9610SOL    HW233678   3.317   6.788   6.361
 9611SOL     OW33679   3.328   6.176   6.578
 9611SOL    HW133680   3.298   6.081   6.585
 9611SOL    HW233681   3.401   6.192   6.644
 9612SOL     OW33682   3.719   6.419   5.963
 9612SOL    HW133683   3.761   6.355   6.027
 9612SOL    HW233684   3.681   6.368   5.885
 9613SOL     OW33685   2.350   6.971   5.760
 9613SOL    HW133686   2.263   6.956   5.807
 9613SOL    HW233687   2.333   6.997   5.665
 9614SOL     OW33688   3.526   6.866   6.243
 9614SOL    HW133689   3.625   6.874   6.257
 9614SOL    HW233690   3.481   6.950   6.274
 9615SOL     OW33691   3.252   6.161   5.664
 9615SOL    HW133692   3.198   6.140   5.745
 9615SOL    HW233693   3.343   6.120   5.673
 9616SOL     OW33694   2.389   5.842   5.914
 9616SOL    HW133695   2.416   5.783   5.839
 9616SOL    HW233696   2.389   5.937   5.883
 9617SOL     OW33697   3.616   6.809   7.174
 9617SOL    HW133698   3.707   6.770   7.161
 9617SOL    HW233699   3.624   6.905   7.198
 9618SOL     OW33700   2.926   6.933   6.926
 9618SOL    HW133701   2.846   6.910   6.981
 9618SOL    HW233702   3.009   6.907   6.975
 9619SOL     OW33703   3.454   7.215   7.211
 9619SOL    HW133704   3.481   7.249   7.121
 9619SOL    HW233705   3.533   7.177   7.257
 9620SOL     OW33706   2.973   6.781   6.686
 9620SOL    HW133707   2.933   6.825   6.767
 9620SOL    HW233708   2.932   6.818   6.603
 9621SOL     OW33709   3.500   6.685   6.665
 9621SOL    HW133710   3.505   6.766   6.724
 9621SOL    HW233711   3.414   6.687   6.614
 9622SOL     OW33712   2.777   5.675   6.988
 9622SOL    HW133713   2.802   5.655   6.893
 9622SOL    HW233714   2.849   5.731   7.030
 9623SOL     OW33715   2.842   6.702   7.305
 9623SOL    HW133716   2.743   6.708   7.315
 9623SOL    HW233717   2.865   6.622   7.249
 9624SOL     OW33718   2.567   6.636   5.954
 9624SOL    HW133719   2.553   6.643   6.053
 9624SOL    HW233720   2.651   6.585   5.936
 9625SOL     OW33721   2.272   6.399   6.837
 9625SOL    HW133722   2.358   6.411   6.887
 9625SOL    HW233723   2.230   6.312   6.864
 9626SOL     OW33724   3.136   5.972   6.848
 9626SOL    HW133725   3.157   6.046   6.912
 9626SOL    HW233726   3.047   5.989   6.805
 9627SOL     OW33727   1.926   7.150   6.917
 9627SOL    HW133728   1.880   7.232   6.883
 9627SOL    HW233729   2.024   7.169   6.926
 9628SOL     OW33730   2.229   6.686   6.087
 9628SOL    HW133731   2.222   6.769   6.031
 9628SOL    HW233732   2.233   6.606   6.027
 9629SOL     OW33733   2.428   6.123   6.451
 9629SOL    HW133734   2.440   6.189   6.377
 9629SOL    HW233735   2.474   6.157   6.534
 9630SOL     OW33736   3.114   6.934   5.974
 9630SOL    HW133737   3.164   7.011   6.014
 9630SOL    HW233738   3.019   6.936   6.006
 9631SOL     OW33739   3.134   7.031   6.728
 9631SOL    HW133740   3.181   7.044   6.815
 9631SOL    HW233741   3.068   6.957   6.737
 9632SOL     OW33742   3.444   6.225   6.058
 9632SOL    HW133743   3.413   6.286   6.131
 9632SOL    HW233744   3.494   6.277   5.989
 9633SOL     OW33745   2.216   7.096   6.915
 9633SOL    HW133746   2.195   7.052   6.828
 9633SOL    HW233747   2.313   7.122   6.918
 9634SOL     OW33748   2.264   6.337   7.184
 9634SOL    HW133749   2.332   6.392   7.137
 9634SOL    HW233750   2.304   6.249   7.211
 9635SOL     OW33751   3.449   6.365   7.256
 9635SOL    HW133752   3.357   6.403   7.251
 9635SOL    HW233753   3.509   6.412   7.191
 9636SOL     OW33754   2.875   5.691   7.356
 9636SOL    HW133755   2.881   5.776   7.304
 9636SOL    HW233756   2.907   5.615   7.299
 9637SOL     OW33757   2.366   5.636   7.326
 9637SOL    HW133758   2.324   5.579   7.256
 9637SOL    HW233759   2.300   5.705   7.358
 9638SOL     OW33760   2.435   6.456   6.615
 9638SOL    HW133761   2.479   6.545   6.606
 9638SOL    HW233762   2.372   6.456   6.692
 9639SOL     OW33763   3.222   6.448   6.631
 9639SOL    HW133764   3.147   6.448   6.565
 9639SOL    HW233765   3.259   6.356   6.640
 9640SOL     OW33766   3.071   6.111   5.861
 9640SOL    HW133767   3.084   6.027   5.915
 9640SOL    HW233768   3.042   6.185   5.921
 9641SOL     OW33769   2.169   5.799   6.817
 9641SOL    HW133770   2.146   5.836   6.907
 9641SOL    HW233771   2.139   5.704   6.811
 9642SOL     OW33772   1.899   6.896   6.868
 9642SOL    HW133773   1.952   6.847   6.936
 9642SOL    HW233774   1.921   6.994   6.873
 9643SOL     OW33775   2.594   6.220   6.650
 9643SOL    HW133776   2.653   6.194   6.574
 9643SOL    HW233777   2.566   6.316   6.639
 9644SOL     OW33778   3.590   6.521   7.440
 9644SOL    HW133779   3.544   6.514   7.351
 9644SOL    HW233780   3.528   6.565   7.506
 9645SOL     OW33781   2.169   5.649   6.204
 9645SOL    HW133782   2.158   5.743   6.237
 9645SOL    HW233783   2.164   5.586   6.281
 9646SOL     OW33784   3.484   5.953   5.960
 9646SOL    HW133785   3.486   5.877   6.024
 9646SOL    HW233786   3.436   6.030   6.000
 9647SOL     OW33787   2.885   6.352   6.552
 9647SOL    HW133788   2.900   6.373   6.648
 9647SOL    HW233789   2.855   6.257   6.543
 9648SOL     OW33790   2.842   7.159   7.286
 9648SOL    HW133791   2.822   7.203   7.198
 9648SOL    HW233792   2.881   7.068   7.270
 9649SOL     OW33793   2.212   6.484   7.390
 9649SOL    HW133794   2.288   6.528   7.438
 9649SOL    HW233795   2.247   6.437   7.308
 9650SOL     OW33796   3.402   5.860   5.711
 9650SOL    HW133797   3.341   5.785   5.734
 9650SOL    HW233798   3.424   5.912   5.794
 9651SOL     OW33799   3.165   6.424   5.628
 9651SOL    HW133800   3.199   6.331   5.643
 9651SOL    HW233801   3.183   6.451   5.533
 9652SOL     OW33802   2.930   6.919   6.435
 9652SOL    HW133803   2.937   6.835   6.380
 9652SOL    HW233804   2.992   6.988   6.399
 9653SOL     OW33805   2.181   6.396   6.535
 9653SOL    HW133806   2.274   6.432   6.540
 9653SOL    HW233807   2.175   6.311   6.587
 9654SOL     OW33808   2.201   6.095   6.592
 9654SOL    HW133809   2.149   6.012   6.575
 9654SOL    HW233810   2.278   6.100   6.528
 9655SOL     OW33811   3.000   5.966   7.264
 9655SOL    HW133812   2.955   6.029   7.328
 9655SOL    HW233813   3.093   5.997   7.247
 9656SOL     OW33814   3.022   5.793   7.063
 9656SOL    HW133815   3.022   5.857   7.140
 9656SOL    HW233816   3.050   5.841   6.980
 9657SOL     OW33817   1.950   7.387   6.513
 9657SOL    HW133818   1.908   7.301   6.486
 9657SOL    HW233819   2.044   7.390   6.479
 9658SOL     OW33820   2.366   7.154   6.496
 9658SOL    HW133821   2.432   7.228   6.505
 9658SOL    HW233822   2.410   7.075   6.454
 9659SOL     OW33823   2.864   6.382   6.824
 9659SOL    HW133824   2.905   6.350   6.910
 9659SOL    HW233825   2.768   6.355   6.821
 9660SOL     OW33826   2.051   6.106   7.308
 9660SOL    HW133827   2.110   6.066   7.238
 9660SOL    HW233828   1.993   6.177   7.267
 9661SOL     OW33829   3.231   6.536   7.246
 9661SOL    HW133830   3.270   6.625   7.266
 9661SOL    HW233831   3.241   6.516   7.149
 9662SOL     OW33832   2.677   6.158   5.911
 9662SOL    HW133833   2.684   6.069   5.865
 9662SOL    HW233834   2.583   6.192   5.903
 9663SOL     OW33835   3.519   6.190   6.792
 9663SOL    HW133836   3.481   6.121   6.854
 9663SOL    HW233837   3.601   6.154   6.748
 9664SOL     OW33838   2.114   7.150   7.330
 9664SOL    HW133839   2.084   7.207   7.406
 9664SOL    HW233840   2.107   7.053   7.356
 9665SOL     OW33841   2.533   6.050   6.855
 9665SOL    HW133842   2.499   5.961   6.825
 9665SOL    HW233843   2.559   6.104   6.775
 9666SOL     OW33844   2.792   7.264   7.051
 9666SOL    HW133845   2.768   7.246   6.956
 9666SOL    HW233846   2.822   7.358   7.061
 9667SOL     OW33847   2.335   6.086   5.777
 9667SOL    HW133848   2.396   6.166   5.781
 9667SOL    HW233849   2.240   6.117   5.784
 9668SOL     OW33850   2.021   6.723   7.052
 9668SOL    HW133851   2.043   6.662   7.128
 9668SOL    HW233852   2.031   6.674   6.966
 9669SOL     OW33853   3.209   6.645   6.820
 9669SOL    HW133854   3.233   6.582   6.746
 9669SOL    HW233855   3.119   6.685   6.802
 9670SOL     OW33856   3.164   6.441   5.895
 9670SOL    HW133857   3.078   6.410   5.937
 9670SOL    HW233858   3.160   6.427   5.796
 9671SOL     OW33859   3.621   7.333   6.740
 9671SOL    HW133860   3.682   7.363   6.667
 9671SOL    HW233861   3.583   7.244   6.718
 9672SOL     OW33862   3.114   7.317   6.714
 9672SOL    HW133863   3.198   7.322   6.660
 9672SOL    HW233864   3.091   7.221   6.732
 9673SOL     OW33865   1.945   6.844   6.608
 9673SOL    HW133866   1.940   6.843   6.708
 9673SOL    HW233867   1.862   6.803   6.570
 9674SOL     OW33868   2.550   7.248   7.302
 9674SOL    HW133869   2.494   7.329   7.311
 9674SOL    HW233870   2.602   7.252   7.216
 9675SOL     OW33871   3.588   5.721   6.109
 9675SOL    HW133872   3.661   5.704   6.042
 9675SOL    HW233873   3.557   5.634   6.147
 9676SOL     OW33874   3.250   7.159   6.063
 9676SOL    HW133875   3.317   7.171   5.989
 9676SOL    HW233876   3.210   7.248   6.086
 9677SOL     OW33877   1.992   7.380   7.437
 9677SOL    HW133878   1.951   7.306   7.490
 9677SOL    HW233879   2.056   7.431   7.495
 9678SOL     OW33880   3.142   6.513   6.258
 9678SOL    HW133881   3.202   6.432   6.260
 9678SOL    HW233882   3.182   6.582   6.198
 9679SOL     OW33883   2.692   6.859   7.008
 9679SOL    HW133884   2.687   6.892   7.103
 9679SOL    HW233885   2.606   6.878   6.962
 9680SOL     OW33886   2.534   7.202   5.740
 9680SOL    HW133887   2.543   7.212   5.641
 9680SOL    HW233888   2.494   7.113   5.761
 9681SOL     OW33889   3.512   7.306   6.980
 9681SOL    HW133890   3.565   7.316   6.896
 9681SOL    HW233891   3.485   7.396   7.014
 9682SOL     OW33892   3.703   5.761   6.549
 9682SOL    HW133893   3.742   5.676   6.513
 9682SOL    HW233894   3.605   5.763   6.530
 9683SOL     OW33895   3.056   7.198   5.617
 9683SOL    HW133896   3.062   7.105   5.654
 9683SOL    HW233897   2.997   7.198   5.537
 9684SOL     OW33898   2.684   6.588   6.958
 9684SOL    HW133899   2.724   6.587   6.866
 9684SOL    HW233900   2.694   6.680   6.998
 9685SOL     OW33901   2.778   6.496   5.877
 9685SOL    HW133902   2.841   6.534   5.809
 9685SOL    HW233903   2.818   6.413   5.916
 9686SOL     OW33904   3.366   7.193   5.630
 9686SOL    HW133905   3.274   7.230   5.637
 9686SOL    HW233906   3.404   7.213   5.540
 9687SOL     OW33907   2.234   6.874   7.076
 9687SOL    HW133908   2.221   6.967   7.042
 9687SOL    HW233909   2.150   6.822   7.063
 9688SOL     OW33910   3.476   6.878   6.875
 9688SOL    HW133911   3.536   6.881   6.955
 9688SOL    HW233912   3.401   6.942   6.888
 9689SOL     OW33913   2.901   6.684   6.282
 9689SOL    HW133914   2.831   6.637   6.336
 9689SOL    HW233915   2.960   6.616   6.239
 9690SOL     OW33916   2.876   5.822   6.557
 9690SOL    HW133917   2.868   5.786   6.464
 9690SOL    HW233918   2.874   5.746   6.622
 9691SOL     OW33919   2.452   7.073   6.077
 9691SOL    HW133920   2.494   7.015   6.007
 9691SOL    HW233921   2.408   7.152   6.033
 9692SOL     OW33922   3.571   5.971   6.967
 9692SOL    HW133923   3.644   6.040   6.971
 9692SOL    HW233924   3.599   5.896   6.908
 9693SOL     OW33925   2.117   6.934   5.876
 9693SOL    HW133926   2.021   6.935   5.849
 9693SOL    HW233927   2.129   6.987   5.960
 9694SOL     OW33928   1.967   6.599   7.312
 9694SOL    HW133929   1.890   6.566   7.366
 9694SOL    HW233930   2.052   6.569   7.354
 9695SOL     OW33931   1.937   5.931   5.619
 9695SOL    HW133932   1.845   5.903   5.590
 9695SOL    HW233933   1.968   6.008   5.563
 9696SOL     OW33934   3.302   6.442   6.984
 9696SOL    HW133935   3.245   6.494   6.921
 9696SOL    HW233936   3.398   6.454   6.960
 9697SOL     OW33937   1.934   5.752   5.904
 9697SOL    HW133938   1.917   5.835   5.850
 9697SOL    HW233939   2.024   5.715   5.882
 9698SOL     OW33940   3.045   6.921   5.705
 9698SOL    HW133941   2.946   6.910   5.707
 9698SOL    HW233942   3.079   6.936   5.798
 9699SOL     OW33943   2.475   6.428   7.017
 9699SOL    HW133944   2.531   6.509   7.000
 9699SOL    HW233945   2.534   6.348   7.020
 9700SOL     OW33946   3.355   7.353   6.545
 9700SOL    HW133947   3.388   7.417   6.476
 9700SOL    HW233948   3.421   7.347   6.620
 9701SOL     OW33949   2.578   6.151   7.294
 9701SOL    HW133950   2.597   6.216   7.368
 9701SOL    HW233951   2.638   6.071   7.303
 9702SOL     OW33952   3.312   6.806   7.219
 9702SOL    HW133953   3.303   6.796   7.318
 9702SOL    HW233954   3.408   6.799   7.193
 9703SOL     OW33955   2.252   7.327   7.146
 9703SOL    HW133956   2.161   7.368   7.144
 9703SOL    HW233957   2.245   7.233   7.178
 9704SOL     OW33958   3.536   6.469   6.840
 9704SOL    HW133959   3.509   6.380   6.803
 9704SOL    HW233960   3.537   6.537   6.767
 9705SOL     OW33961   3.087   5.911   6.035
 9705SOL    HW133962   3.152   5.837   6.024
 9705SOL    HW233963   3.107   5.961   6.119
 9706SOL     OW33964   2.456   6.331   6.238
 9706SOL    HW133965   2.506   6.416   6.219
 9706SOL    HW233966   2.368   6.333   6.190
 9707SOL     OW33967   3.639   5.928   7.228
 9707SOL    HW133968   3.622   5.959   7.134
 9707SOL    HW233969   3.555   5.891   7.266
 9708SOL     OW33970   3.592   6.520   7.103
 9708SOL    HW133971   3.630   6.611   7.118
 9708SOL    HW233972   3.584   6.503   7.004
 9709SOL     OW33973   2.721   6.960   5.602
 9709SOL    HW133974   2.675   6.975   5.690
 9709SOL    HW233975   2.765   7.045   5.572
 9710SOL     OW33976   2.523   7.376   6.539
 9710SOL    HW133977   2.477   7.464   6.526
 9710SOL    HW233978   2.622   7.388   6.532
 9711SOL     OW33979   2.721   6.542   6.447
 9711SOL    HW133980   2.775   6.473   6.495
 9711SOL    HW233981   2.689   6.611   6.513
 9712SOL     OW33982   2.945   6.570   5.673
 9712SOL    HW133983   2.922   6.623   5.591
 9712SOL    HW233984   3.026   6.514   5.654
 9713SOL     OW33985   3.723   7.155   6.437
 9713SOL    HW133986   3.652   7.143   6.367
 9713SOL    HW233987   3.724   7.076   6.497
 9714SOL     OW33988   2.083   6.900   7.430
 9714SOL    HW133989   2.018   6.827   7.409
 9714SOL    HW233990   2.087   6.914   7.528
 9715SOL     OW33991   1.941   6.826   6.239
 9715SOL    HW133992   1.940   6.779   6.327
 9715SOL    HW233993   2.023   6.798   6.188
 9716SOL     OW33994   2.534   6.977   7.210
 9716SOL    HW133995   2.456   6.927   7.248
 9716SOL    HW233996   2.531   7.072   7.241
 9717SOL     OW33997   3.686   5.778   6.813
 9717SOL    HW133998   3.682   5.688   6.857
 9717SOL    HW233999   3.689   5.767   6.714
 9718SOL     OW34000   2.290   6.010   6.106
 9718SOL    HW134001   2.320   5.938   6.044
 9718SOL    HW234002   2.251   5.970   6.189
 9719SOL     OW34003   3.567   7.073   6.690
 9719SOL    HW134004   3.474   7.048   6.663
 9719SOL    HW234005   3.593   7.023   6.772
 9720SOL     OW34006   2.179   6.133   6.866
 9720SOL    HW134007   2.217   6.074   6.938
 9720SOL    HW234008   2.219   6.107   6.778
 9721SOL     OW34009   2.674   7.172   6.273
 9721SOL    HW134010   2.706   7.182   6.179
 9721SOL    HW234011   2.595   7.110   6.275
 9722SOL     OW34012   3.286   5.800   6.698
 9722SOL    HW134013   3.338   5.735   6.753
 9722SOL    HW234014   3.237   5.863   6.759
 9723SOL     OW34015   2.863   5.620   6.740
 9723SOL    HW134016   2.800   5.548   6.709
 9723SOL    HW234017   2.956   5.584   6.740
 9724SOL     OW34018   2.632   6.916   5.887
 9724SOL    HW134019   2.586   6.829   5.904
 9724SOL    HW234020   2.723   6.913   5.928
 9725SOL     OW34021   2.480   7.153   6.870
 9725SOL    HW134022   2.475   7.235   6.927
 9725SOL    HW234023   2.569   7.150   6.825
 9726SOL     OW34024   3.214   5.638   5.754
 9726SOL    HW134025   3.249   5.597   5.670
 9726SOL    HW234026   3.124   5.600   5.774
 9727SOL     OW34027   3.162   6.039   6.277
 9727SOL    HW134028   3.103   6.119   6.281
 9727SOL    HW234029   3.177   6.004   6.370
 9728SOL     OW34030   3.455   5.807   6.468
 9728SOL    HW134031   3.371   5.806   6.522
 9728SOL    HW234032   3.457   5.890   6.412
 9729SOL     OW34033   1.901   6.663   5.886
 9729SOL    HW134034   2.000   6.652   5.877
 9729SOL    HW234035   1.861   6.577   5.918
 9730SOL     OW34036   2.737   7.232   5.923
 9730SOL    HW134037   2.660   7.197   5.869
 9730SOL    HW234038   2.705   7.303   5.985
 9731SOL     OW34039   2.092   6.214   7.561
 9731SOL    HW134040   1.999   6.212   7.598
 9731SOL    HW234041   2.093   6.175   7.469
 9732SOL     OW34042   2.087   5.861   8.444
 9732SOL    HW134043   2.122   5.844   8.536
 9732SOL    HW234044   1.999   5.816   8.432
 9733SOL     OW34045   1.881   5.954   8.095
 9733SOL    HW134046   1.799   5.997   8.134
 9733SOL    HW234047   1.853   5.881   8.032
 9734SOL     OW34048   2.431   6.861   8.613
 9734SOL    HW134049   2.338   6.854   8.576
 9734SOL    HW234050   2.442   6.950   8.657
 9735SOL     OW34051   3.417   7.097   8.151
 9735SOL    HW134052   3.360   7.081   8.232
 9735SOL    HW234053   3.358   7.107   8.071
 9736SOL     OW34054   2.997   6.289   8.165
 9736SOL    HW134055   3.054   6.367   8.140
 9736SOL    HW234056   2.937   6.315   8.241
 9737SOL     OW34057   3.617   6.193   7.679
 9737SOL    HW134058   3.605   6.180   7.580
 9737SOL    HW234059   3.587   6.112   7.728
 9738SOL     OW34060   2.630   6.730   8.471
 9738SOL    HW134061   2.552   6.747   8.531
 9738SOL    HW234062   2.664   6.817   8.435
 9739SOL     OW34063   2.712   6.384   9.271
 9739SOL    HW134064   2.708   6.460   9.336
 9739SOL    HW234065   2.734   6.420   9.180
 9740SOL     OW34066   2.547   6.598   8.113
 9740SOL    HW134067   2.616   6.582   8.183
 9740SOL    HW234068   2.474   6.655   8.151
 9741SOL     OW34069   2.548   6.747   9.251
 9741SOL    HW134070   2.608   6.826   9.265
 9741SOL    HW234071   2.462   6.778   9.210
 9742SOL     OW34072   2.197   7.021   8.509
 9742SOL    HW134073   2.119   6.990   8.456
 9742SOL    HW234074   2.255   7.079   8.452
 9743SOL     OW34075   3.322   7.091   8.787
 9743SOL    HW134076   3.346   7.185   8.813
 9743SOL    HW234077   3.306   7.037   8.869
 9744SOL     OW34078   2.300   5.978   8.947
 9744SOL    HW134079   2.382   5.922   8.956
 9744SOL    HW234080   2.219   5.920   8.951
 9745SOL     OW34081   3.465   6.033   8.185
 9745SOL    HW134082   3.391   6.079   8.135
 9745SOL    HW234083   3.516   6.101   8.238
 9746SOL     OW34084   2.093   7.299   7.931
 9746SOL    HW134085   2.127   7.376   7.985
 9746SOL    HW234086   2.137   7.299   7.841
 9747SOL     OW34087   2.989   6.927   9.138
 9747SOL    HW134088   3.036   6.927   9.226
 9747SOL    HW234089   2.941   6.840   9.127
 9748SOL     OW34090   2.092   7.020   7.986
 9748SOL    HW134091   2.066   7.116   7.986
 9748SOL    HW234092   2.021   6.966   8.031
 9749SOL     OW34093   2.102   6.677   8.334
 9749SOL    HW134094   2.116   6.593   8.386
 9749SOL    HW234095   2.047   6.741   8.389
 9750SOL     OW34096   2.482   7.372   8.887
 9750SOL    HW134097   2.390   7.355   8.922
 9750SOL    HW234098   2.510   7.464   8.913
 9751SOL     OW34099   2.468   6.550   7.571
 9751SOL    HW134100   2.475   6.634   7.517
 9751SOL    HW234101   2.514   6.563   7.659
 9752SOL     OW34102   3.456   5.700   8.928
 9752SOL    HW134103   3.438   5.767   8.856
 9752SOL    HW234104   3.453   5.746   9.017
 9753SOL     OW34105   1.984   6.229   8.011
 9753SOL    HW134106   1.939   6.141   8.028
 9753SOL    HW234107   1.983   6.283   8.095
 9754SOL     OW34108   3.704   7.353   7.807
 9754SOL    HW134109   3.758   7.324   7.887
 9754SOL    HW234110   3.734   7.443   7.778
 9755SOL     OW34111   1.889   7.182   7.565
 9755SOL    HW134112   1.870   7.086   7.586
 9755SOL    HW234113   1.856   7.240   7.640
 9756SOL     OW34114   3.551   6.508   8.060
 9756SOL    HW134115   3.646   6.479   8.068
 9756SOL    HW234116   3.543   6.573   7.985
 9757SOL     OW34117   3.503   6.694   7.880
 9757SOL    HW134118   3.589   6.696   7.828
 9757SOL    HW234119   3.517   6.741   7.968
 9758SOL     OW34120   1.975   6.323   9.045
 9758SOL    HW134121   2.063   6.310   9.090
 9758SOL    HW234122   1.962   6.420   9.023
 9759SOL     OW34123   2.475   6.951   8.174
 9759SOL    HW134124   2.426   6.864   8.183
 9759SOL    HW234125   2.452   6.994   8.087
 9760SOL     OW34126   3.155   6.814   8.871
 9760SOL    HW134127   3.192   6.741   8.813
 9760SOL    HW234128   3.207   6.819   8.956
 9761SOL     OW34129   2.671   5.590   7.950
 9761SOL    HW134130   2.711   5.681   7.941
 9761SOL    HW234131   2.571   5.598   7.956
 9762SOL     OW34132   2.059   6.562   8.712
 9762SOL    HW134133   2.148   6.517   8.698
 9762SOL    HW234134   1.986   6.497   8.693
 9763SOL     OW34135   3.387   6.585   7.638
 9763SOL    HW134136   3.324   6.509   7.651
 9763SOL    HW234137   3.435   6.603   7.724
 9764SOL     OW34138   3.049   7.378   9.064
 9764SOL    HW134139   3.073   7.438   8.988
 9764SOL    HW234140   3.056   7.283   9.034
 9765SOL     OW34141   3.328   7.003   8.401
 9765SOL    HW134142   3.269   7.009   8.481
 9765SOL    HW234143   3.313   6.915   8.355
 9766SOL     OW34144   3.529   7.300   8.020
 9766SOL    HW134145   3.488   7.277   7.932
 9766SOL    HW234146   3.511   7.226   8.085
 9767SOL     OW34147   2.460   6.315   7.718
 9767SOL    HW134148   2.484   6.384   7.650
 9767SOL    HW234149   2.382   6.348   7.772
 9768SOL     OW34150   3.143   5.931   8.392
 9768SOL    HW134151   3.057   5.881   8.379
 9768SOL    HW234152   3.205   5.877   8.448
 9769SOL     OW34153   3.438   7.248   7.755
 9769SOL    HW134154   3.527   7.294   7.758
 9769SOL    HW234155   3.417   7.224   7.660
 9770SOL     OW34156   2.669   6.191   8.913
 9770SOL    HW134157   2.622   6.188   9.002
 9770SOL    HW234158   2.618   6.136   8.847
 9771SOL     OW34159   3.256   6.055   9.122
 9771SOL    HW134160   3.236   6.098   9.210
 9771SOL    HW234161   3.334   5.993   9.131
 9772SOL     OW34162   2.835   6.476   9.020
 9772SOL    HW134163   2.881   6.392   8.991
 9772SOL    HW234164   2.779   6.510   8.945
 9773SOL     OW34165   2.853   5.996   8.690
 9773SOL    HW134166   2.776   6.030   8.744
 9773SOL    HW234167   2.819   5.945   8.611
 9774SOL     OW34168   2.903   6.287   7.877
 9774SOL    HW134169   2.929   6.283   7.973
 9774SOL    HW234170   2.818   6.236   7.863
 9775SOL     OW34171   1.938   6.397   8.237
 9775SOL    HW134172   2.037   6.385   8.246
 9775SOL    HW234173   1.914   6.492   8.258
 9776SOL     OW34174   1.992   7.407   9.019
 9776SOL    HW134175   1.982   7.392   9.118
 9776SOL    HW234176   1.906   7.443   8.983
 9777SOL     OW34177   2.727   5.934   7.643
 9777SOL    HW134178   2.786   5.997   7.594
 9777SOL    HW234179   2.746   5.840   7.614
 9778SOL     OW34180   3.581   6.171   9.279
 9778SOL    HW134181   3.555   6.260   9.243
 9778SOL    HW234182   3.579   6.103   9.206
 9779SOL     OW34183   3.224   6.730   7.993
 9779SOL    HW134184   3.307   6.701   7.945
 9779SOL    HW234185   3.175   6.797   7.937
 9780SOL     OW34186   2.412   5.782   8.333
 9780SOL    HW134187   2.407   5.777   8.433
 9780SOL    HW234188   2.414   5.878   8.304
 9781SOL     OW34189   2.870   7.042   7.925
 9781SOL    HW134190   2.824   7.114   7.873
 9781SOL    HW234191   2.866   7.062   8.023
 9782SOL     OW34192   2.213   7.387   8.301
 9782SOL    HW134193   2.263   7.301   8.307
 9782SOL    HW234194   2.278   7.464   8.298
 9783SOL     OW34195   3.657   6.652   8.321
 9783SOL    HW134196   3.595   6.637   8.245
 9783SOL    HW234197   3.605   6.663   8.406
 9784SOL     OW34198   3.089   7.136   8.954
 9784SOL    HW134199   3.095   7.059   9.018
 9784SOL    HW234200   3.037   7.110   8.874
 9785SOL     OW34201   2.183   6.529   7.690
 9785SOL    HW134202   2.265   6.568   7.648
 9785SOL    HW234203   2.156   6.447   7.641
 9786SOL     OW34204   3.320   6.321   8.176
 9786SOL    HW134205   3.315   6.256   8.251
 9786SOL    HW234206   3.400   6.380   8.189
 9787SOL     OW34207   2.323   6.852   9.175
 9787SOL    HW134208   2.273   6.853   9.089
 9787SOL    HW234209   2.260   6.834   9.251
 9788SOL     OW34210   2.973   7.362   7.685
 9788SOL    HW134211   2.913   7.300   7.735
 9788SOL    HW234212   3.004   7.318   7.600
 9789SOL     OW34213   2.064   5.871   8.946
 9789SOL    HW134214   1.984   5.931   8.933
 9789SOL    HW234215   2.054   5.822   9.032
 9790SOL     OW34216   3.494   6.963   7.529
 9790SOL    HW134217   3.462   7.057   7.519
 9790SOL    HW234218   3.418   6.900   7.517
 9791SOL     OW34219   2.326   7.329   7.771
 9791SOL    HW134220   2.359   7.368   7.857
 9791SOL    HW234221   2.402   7.322   7.706
 9792SOL     OW34222   3.262   5.693   7.874
 9792SOL    HW134223   3.238   5.656   7.784
 9792SOL    HW234224   3.361   5.709   7.878
 9793SOL     OW34225   2.111   7.371   8.689
 9793SOL    HW134226   2.168   7.306   8.739
 9793SOL    HW234227   2.095   7.338   8.596
 9794SOL     OW34228   2.802   7.284   8.352
 9794SOL    HW134229   2.882   7.227   8.373
 9794SOL    HW234230   2.753   7.244   8.275
 9795SOL     OW34231   2.244   6.286   7.928
 9795SOL    HW134232   2.289   6.196   7.925
 9795SOL    HW234233   2.150   6.275   7.961
 9796SOL     OW34234   3.409   5.808   9.177
 9796SOL    HW134235   3.404   5.845   9.269
 9796SOL    HW234236   3.337   5.739   9.165
 9797SOL     OW34237   2.476   5.708   7.565
 9797SOL    HW134238   2.574   5.686   7.572
 9797SOL    HW234239   2.445   5.691   7.472
 9798SOL     OW34240   2.643   5.850   9.197
 9798SOL    HW134241   2.710   5.789   9.240
 9798SOL    HW234242   2.570   5.869   9.262
 9799SOL     OW34243   2.750   7.100   8.643
 9799SOL    HW134244   2.727   7.075   8.549
 9799SOL    HW234245   2.811   7.031   8.682
 9800SOL     OW34246   3.213   6.176   8.881
 9800SOL    HW134247   3.241   6.133   8.966
 9800SOL    HW234248   3.238   6.272   8.882
 9801SOL     OW34249   2.665   6.988   8.372
 9801SOL    HW134250   2.755   7.002   8.330
 9801SOL    HW234251   2.594   6.990   8.301
 9802SOL     OW34252   2.784   6.089   8.347
 9802SOL    HW134253   2.759   6.080   8.251
 9802SOL    HW234254   2.832   6.007   8.378
 9803SOL     OW34255   2.401   5.650   7.960
 9803SOL    HW134256   2.320   5.651   8.018
 9803SOL    HW234257   2.404   5.733   7.905
 9804SOL     OW34258   3.296   6.774   7.489
 9804SOL    HW134259   3.328   6.698   7.546
 9804SOL    HW234260   3.204   6.801   7.519
 9805SOL     OW34261   2.159   5.621   7.619
 9805SOL    HW134262   2.208   5.705   7.598
 9805SOL    HW234263   2.221   5.556   7.664
 9806SOL     OW34264   2.797   5.822   7.928
 9806SOL    HW134265   2.749   5.863   7.850
 9806SOL    HW234266   2.896   5.820   7.909
 9807SOL     OW34267   2.938   6.269   8.912
 9807SOL    HW134268   2.858   6.208   8.915
 9807SOL    HW234269   3.019   6.216   8.888
 9808SOL     OW34270   3.089   7.156   8.241
 9808SOL    HW134271   3.110   7.230   8.176
 9808SOL    HW234272   3.157   7.156   8.314
 9809SOL     OW34273   2.321   6.738   8.189
 9809SOL    HW134274   2.250   6.711   8.254
 9809SOL    HW234275   2.295   6.710   8.096
 9810SOL     OW34276   3.133   7.383   8.039
 9810SOL    HW134277   3.177   7.447   7.975
 9810SOL    HW234278   3.083   7.435   8.109
 9811SOL     OW34279   2.894   6.135   7.464
 9811SOL    HW134280   2.853   6.217   7.425
 9811SOL    HW234281   2.958   6.161   7.537
 9812SOL     OW34282   1.940   6.142   8.834
 9812SOL    HW134283   2.032   6.141   8.793
 9812SOL    HW234284   1.934   6.216   8.901
 9813SOL     OW34285   2.423   5.808   8.595
 9813SOL    HW134286   2.461   5.724   8.632
 9813SOL    HW234287   2.335   5.827   8.639
 9814SOL     OW34288   2.728   6.040   8.090
 9814SOL    HW134289   2.696   6.112   8.028
 9814SOL    HW234290   2.752   5.959   8.037
 9815SOL     OW34291   2.879   5.625   8.201
 9815SOL    HW134292   2.807   5.630   8.132
 9815SOL    HW234293   2.855   5.556   8.270
 9816SOL     OW34294   3.291   6.759   8.315
 9816SOL    HW134295   3.236   6.675   8.308
 9816SOL    HW234296   3.317   6.788   8.223
 9817SOL     OW34297   3.328   6.176   8.440
 9817SOL    HW134298   3.298   6.081   8.447
 9817SOL    HW234299   3.401   6.192   8.506
 9818SOL     OW34300   3.719   6.419   7.825
 9818SOL    HW134301   3.761   6.355   7.889
 9818SOL    HW234302   3.681   6.368   7.747
 9819SOL     OW34303   2.350   6.971   7.622
 9819SOL    HW134304   2.263   6.956   7.669
 9819SOL    HW234305   2.333   6.997   7.527
 9820SOL     OW34306   3.526   6.866   8.105
 9820SOL    HW134307   3.625   6.874   8.119
 9820SOL    HW234308   3.481   6.950   8.136
 9821SOL     OW34309   2.389   5.842   7.776
 9821SOL    HW134310   2.416   5.783   7.701
 9821SOL    HW234311   2.389   5.937   7.745
 9822SOL     OW34312   3.616   6.809   9.036
 9822SOL    HW134313   3.707   6.770   9.023
 9822SOL    HW234314   3.624   6.905   9.060
 9823SOL     OW34315   2.926   6.933   8.788
 9823SOL    HW134316   2.846   6.910   8.843
 9823SOL    HW234317   3.009   6.907   8.837
 9824SOL     OW34318   3.454   7.215   9.073
 9824SOL    HW134319   3.481   7.249   8.983
 9824SOL    HW234320   3.533   7.177   9.119
 9825SOL     OW34321   2.973   6.781   8.548
 9825SOL    HW134322   2.933   6.825   8.629
 9825SOL    HW234323   2.932   6.818   8.465
 9826SOL     OW34324   3.500   6.685   8.527
 9826SOL    HW134325   3.505   6.766   8.586
 9826SOL    HW234326   3.414   6.687   8.476
 9827SOL     OW34327   2.777   5.675   8.850
 9827SOL    HW134328   2.802   5.655   8.755
 9827SOL    HW234329   2.849   5.731   8.892
 9828SOL     OW34330   2.842   6.702   9.167
 9828SOL    HW134331   2.743   6.708   9.177
 9828SOL    HW234332   2.865   6.622   9.111
 9829SOL     OW34333   2.567   6.636   7.816
 9829SOL    HW134334   2.553   6.643   7.915
 9829SOL    HW234335   2.651   6.585   7.798
 9830SOL     OW34336   2.272   6.399   8.699
 9830SOL    HW134337   2.358   6.411   8.749
 9830SOL    HW234338   2.230   6.312   8.726
 9831SOL     OW34339   3.136   5.972   8.710
 9831SOL    HW134340   3.157   6.046   8.774
 9831SOL    HW234341   3.047   5.989   8.667
 9832SOL     OW34342   1.926   7.150   8.779
 9832SOL    HW134343   1.880   7.232   8.745
 9832SOL    HW234344   2.024   7.169   8.788
 9833SOL     OW34345   2.428   6.123   8.313
 9833SOL    HW134346   2.440   6.189   8.239
 9833SOL    HW234347   2.474   6.157   8.396
 9834SOL     OW34348   3.114   6.934   7.836
 9834SOL    HW134349   3.164   7.011   7.876
 9834SOL    HW234350   3.019   6.936   7.868
 9835SOL     OW34351   3.134   7.031   8.590
 9835SOL    HW134352   3.181   7.044   8.677
 9835SOL    HW234353   3.068   6.957   8.599
 9836SOL     OW34354   3.444   6.225   7.920
 9836SOL    HW134355   3.413   6.286   7.993
 9836SOL    HW234356   3.494   6.277   7.851
 9837SOL     OW34357   2.216   7.096   8.777
 9837SOL    HW134358   2.195   7.052   8.690
 9837SOL    HW234359   2.313   7.122   8.780
 9838SOL     OW34360   2.264   6.337   9.046
 9838SOL    HW134361   2.332   6.392   8.999
 9838SOL    HW234362   2.304   6.249   9.073
 9839SOL     OW34363   2.875   5.691   9.218
 9839SOL    HW134364   2.881   5.776   9.166
 9839SOL    HW234365   2.907   5.615   9.161
 9840SOL     OW34366   2.366   5.636   9.188
 9840SOL    HW134367   2.324   5.579   9.118
 9840SOL    HW234368   2.300   5.705   9.220
 9841SOL     OW34369   2.435   6.456   8.477
 9841SOL    HW134370   2.479   6.545   8.468
 9841SOL    HW234371   2.372   6.456   8.554
 9842SOL     OW34372   3.222   6.448   8.493
 9842SOL    HW134373   3.147   6.448   8.427
 9842SOL    HW234374   3.259   6.356   8.502
 9843SOL     OW34375   3.071   6.111   7.723
 9843SOL    HW134376   3.084   6.027   7.777
 9843SOL    HW234377   3.042   6.185   7.783
 9844SOL     OW34378   2.169   5.799   8.679
 9844SOL    HW134379   2.146   5.836   8.769
 9844SOL    HW234380   2.139   5.704   8.673
 9845SOL     OW34381   1.899   6.896   8.730
 9845SOL    HW134382   1.952   6.847   8.798
 9845SOL    HW234383   1.921   6.994   8.735
 9846SOL     OW34384   2.594   6.220   8.512
 9846SOL    HW134385   2.653   6.194   8.436
 9846SOL    HW234386   2.566   6.316   8.501
 9847SOL     OW34387   3.590   6.521   9.302
 9847SOL    HW134388   3.544   6.514   9.213
 9847SOL    HW234389   3.528   6.565   9.368
 9848SOL     OW34390   2.169   5.649   8.066
 9848SOL    HW134391   2.158   5.743   8.099
 9848SOL    HW234392   2.164   5.586   8.143
 9849SOL     OW34393   3.484   5.953   7.822
 9849SOL    HW134394   3.486   5.877   7.886
 9849SOL    HW234395   3.436   6.030   7.862
 9850SOL     OW34396   2.885   6.352   8.414
 9850SOL    HW134397   2.900   6.373   8.510
 9850SOL    HW234398   2.855   6.257   8.405
 9851SOL     OW34399   2.842   7.159   9.148
 9851SOL    HW134400   2.822   7.203   9.060
 9851SOL    HW234401   2.881   7.068   9.132
 9852SOL     OW34402   3.721   7.104   9.053
 9852SOL    HW134403   3.735   7.131   8.958
 9852SOL    HW234404   3.804   7.126   9.106
 9853SOL     OW34405   2.212   6.484   9.252
 9853SOL    HW134406   2.288   6.528   9.300
 9853SOL    HW234407   2.247   6.437   9.170
 9854SOL     OW34408   3.402   5.860   7.573
 9854SOL    HW134409   3.341   5.785   7.596
 9854SOL    HW234410   3.424   5.912   7.656
 9855SOL     OW34411   3.165   6.424   7.490
 9855SOL    HW134412   3.199   6.331   7.505
 9855SOL    HW234413   3.183   6.451   7.395
 9856SOL     OW34414   2.930   6.919   8.297
 9856SOL    HW134415   2.937   6.835   8.242
 9856SOL    HW234416   2.992   6.988   8.261
 9857SOL     OW34417   2.181   6.396   8.397
 9857SOL    HW134418   2.274   6.432   8.402
 9857SOL    HW234419   2.175   6.311   8.449
 9858SOL     OW34420   2.201   6.095   8.454
 9858SOL    HW134421   2.149   6.012   8.437
 9858SOL    HW234422   2.278   6.100   8.390
 9859SOL     OW34423   3.000   5.966   9.126
 9859SOL    HW134424   2.955   6.029   9.190
 9859SOL    HW234425   3.093   5.997   9.109
 9860SOL     OW34426   3.022   5.793   8.925
 9860SOL    HW134427   3.022   5.857   9.002
 9860SOL    HW234428   3.050   5.841   8.842
 9861SOL     OW34429   1.870   6.912   7.648
 9861SOL    HW134430   1.777   6.933   7.617
 9861SOL    HW234431   1.880   6.813   7.661
 9862SOL     OW34432   1.950   7.387   8.375
 9862SOL    HW134433   1.908   7.301   8.348
 9862SOL    HW234434   2.044   7.390   8.341
 9863SOL     OW34435   2.366   7.154   8.358
 9863SOL    HW134436   2.432   7.228   8.367
 9863SOL    HW234437   2.410   7.075   8.316
 9864SOL     OW34438   2.864   6.382   8.686
 9864SOL    HW134439   2.905   6.350   8.772
 9864SOL    HW234440   2.768   6.355   8.683
 9865SOL     OW34441   1.902   6.130   8.562
 9865SOL    HW134442   1.987   6.097   8.521
 9865SOL    HW234443   1.915   6.145   8.660
 9866SOL     OW34444   2.051   6.106   9.170
 9866SOL    HW134445   2.110   6.066   9.100
 9866SOL    HW234446   1.993   6.177   9.129
 9867SOL     OW34447   3.231   6.536   9.108
 9867SOL    HW134448   3.270   6.625   9.128
 9867SOL    HW234449   3.241   6.516   9.011
 9868SOL     OW34450   2.677   6.158   7.773
 9868SOL    HW134451   2.684   6.069   7.727
 9868SOL    HW234452   2.583   6.192   7.765
 9869SOL     OW34453   3.519   6.190   8.654
 9869SOL    HW134454   3.481   6.121   8.716
 9869SOL    HW234455   3.601   6.154   8.610
 9870SOL     OW34456   2.114   7.150   9.192
 9870SOL    HW134457   2.084   7.207   9.268
 9870SOL    HW234458   2.107   7.053   9.218
 9871SOL     OW34459   2.533   6.050   8.717
 9871SOL    HW134460   2.499   5.961   8.687
 9871SOL    HW234461   2.559   6.104   8.637
 9872SOL     OW34462   2.792   7.264   8.913
 9872SOL    HW134463   2.768   7.246   8.818
 9872SOL    HW234464   2.822   7.358   8.923
 9873SOL     OW34465   2.335   6.086   7.639
 9873SOL    HW134466   2.396   6.166   7.643
 9873SOL    HW234467   2.240   6.117   7.646
 9874SOL     OW34468   2.021   6.723   8.914
 9874SOL    HW134469   2.043   6.662   8.990
 9874SOL    HW234470   2.031   6.674   8.828
 9875SOL     OW34471   3.209   6.645   8.682
 9875SOL    HW134472   3.233   6.582   8.608
 9875SOL    HW234473   3.119   6.685   8.664
 9876SOL     OW34474   3.164   6.441   7.757
 9876SOL    HW134475   3.078   6.410   7.799
 9876SOL    HW234476   3.160   6.427   7.658
 9877SOL     OW34477   3.621   7.333   8.602
 9877SOL    HW134478   3.682   7.363   8.529
 9877SOL    HW234479   3.583   7.244   8.580
 9878SOL     OW34480   3.114   7.317   8.576
 9878SOL    HW134481   3.198   7.322   8.522
 9878SOL    HW234482   3.091   7.221   8.594
 9879SOL     OW34483   1.945   6.844   8.470
 9879SOL    HW134484   1.940   6.843   8.570
 9879SOL    HW234485   1.862   6.803   8.432
 9880SOL     OW34486   2.550   7.248   9.164
 9880SOL    HW134487   2.494   7.329   9.173
 9880SOL    HW234488   2.602   7.252   9.078
 9881SOL     OW34489   3.588   5.721   7.971
 9881SOL    HW134490   3.661   5.704   7.904
 9881SOL    HW234491   3.557   5.634   8.009
 9882SOL     OW34492   3.250   7.159   7.925
 9882SOL    HW134493   3.317   7.171   7.851
 9882SOL    HW234494   3.210   7.248   7.948
 9883SOL     OW34495   1.992   7.380   9.299
 9883SOL    HW134496   1.951   7.306   9.352
 9883SOL    HW234497   2.056   7.431   9.357
 9884SOL     OW34498   2.692   6.859   8.870
 9884SOL    HW134499   2.687   6.892   8.965
 9884SOL    HW234500   2.606   6.878   8.824
 9885SOL     OW34501   2.534   7.202   7.602
 9885SOL    HW134502   2.543   7.212   7.503
 9885SOL    HW234503   2.494   7.113   7.623
 9886SOL     OW34504   3.703   5.761   8.411
 9886SOL    HW134505   3.742   5.676   8.375
 9886SOL    HW234506   3.605   5.763   8.392
 9887SOL     OW34507   2.125   5.912   8.168
 9887SOL    HW134508   2.046   5.963   8.134
 9887SOL    HW234509   2.116   5.897   8.266
 9888SOL     OW34510   3.056   7.198   7.479
 9888SOL    HW134511   3.062   7.105   7.516
 9888SOL    HW234512   2.997   7.198   7.399
 9889SOL     OW34513   2.684   6.588   8.820
 9889SOL    HW134514   2.724   6.587   8.728
 9889SOL    HW234515   2.694   6.680   8.860
 9890SOL     OW34516   2.778   6.496   7.739
 9890SOL    HW134517   2.841   6.534   7.671
 9890SOL    HW234518   2.818   6.413   7.778
 9891SOL     OW34519   3.366   7.193   7.492
 9891SOL    HW134520   3.274   7.230   7.499
 9891SOL    HW234521   3.404   7.213   7.402
 9892SOL     OW34522   2.234   6.874   8.938
 9892SOL    HW134523   2.221   6.967   8.904
 9892SOL    HW234524   2.150   6.822   8.925
 9893SOL     OW34525   3.476   6.878   8.737
 9893SOL    HW134526   3.536   6.881   8.817
 9893SOL    HW234527   3.401   6.942   8.750
 9894SOL     OW34528   2.901   6.684   8.144
 9894SOL    HW134529   2.831   6.637   8.198
 9894SOL    HW234530   2.960   6.616   8.101
 9895SOL     OW34531   2.876   5.822   8.419
 9895SOL    HW134532   2.868   5.786   8.326
 9895SOL    HW234533   2.874   5.746   8.484
 9896SOL     OW34534   2.452   7.073   7.939
 9896SOL    HW134535   2.494   7.015   7.869
 9896SOL    HW234536   2.408   7.152   7.895
 9897SOL     OW34537   3.571   5.971   8.829
 9897SOL    HW134538   3.644   6.040   8.833
 9897SOL    HW234539   3.599   5.896   8.770
 9898SOL     OW34540   2.117   6.934   7.738
 9898SOL    HW134541   2.021   6.935   7.711
 9898SOL    HW234542   2.129   6.987   7.822
 9899SOL     OW34543   1.967   6.599   9.174
 9899SOL    HW134544   1.890   6.566   9.228
 9899SOL    HW234545   2.052   6.569   9.216
 9900SOL     OW34546   2.534   5.789   8.937
 9900SOL    HW134547   2.624   5.773   8.897
 9900SOL    HW234548   2.542   5.794   9.036
 9901SOL     OW34549   1.937   5.931   7.481
 9901SOL    HW134550   1.845   5.903   7.452
 9901SOL    HW234551   1.968   6.008   7.425
 9902SOL     OW34552   3.302   6.442   8.846
 9902SOL    HW134553   3.245   6.494   8.783
 9902SOL    HW234554   3.398   6.454   8.822
 9903SOL     OW34555   1.934   5.752   7.766
 9903SOL    HW134556   1.917   5.835   7.712
 9903SOL    HW234557   2.024   5.715   7.744
 9904SOL     OW34558   3.045   6.921   7.567
 9904SOL    HW134559   2.946   6.910   7.569
 9904SOL    HW234560   3.079   6.936   7.660
 9905SOL     OW34561   2.475   6.428   8.879
 9905SOL    HW134562   2.531   6.509   8.862
 9905SOL    HW234563   2.534   6.348   8.882
 9906SOL     OW34564   3.355   7.353   8.407
 9906SOL    HW134565   3.388   7.417   8.338
 9906SOL    HW234566   3.421   7.347   8.482
 9907SOL     OW34567   2.578   6.151   9.156
 9907SOL    HW134568   2.597   6.216   9.230
 9907SOL    HW234569   2.638   6.071   9.165
 9908SOL     OW34570   3.312   6.806   9.081
 9908SOL    HW134571   3.303   6.796   9.180
 9908SOL    HW234572   3.408   6.799   9.055
 9909SOL     OW34573   2.252   7.327   9.008
 9909SOL    HW134574   2.161   7.368   9.006
 9909SOL    HW234575   2.245   7.233   9.040
 9910SOL     OW34576   3.536   6.469   8.702
 9910SOL    HW134577   3.509   6.380   8.665
 9910SOL    HW234578   3.537   6.537   8.629
 9911SOL     OW34579   3.087   5.911   7.897
 9911SOL    HW134580   3.152   5.837   7.886
 9911SOL    HW234581   3.107   5.961   7.981
 9912SOL     OW34582   2.456   6.331   8.100
 9912SOL    HW134583   2.506   6.416   8.081
 9912SOL    HW234584   2.368   6.333   8.052
 9913SOL     OW34585   3.639   5.928   9.090
 9913SOL    HW134586   3.622   5.959   8.996
 9913SOL    HW234587   3.555   5.891   9.128
 9914SOL     OW34588   3.592   6.520   8.965
 9914SOL    HW134589   3.630   6.611   8.980
 9914SOL    HW234590   3.584   6.503   8.866
 9915SOL     OW34591   2.721   6.960   7.464
 9915SOL    HW134592   2.675   6.975   7.552
 9915SOL    HW234593   2.765   7.045   7.434
 9916SOL     OW34594   2.523   7.376   8.401
 9916SOL    HW134595   2.477   7.464   8.388
 9916SOL    HW234596   2.622   7.388   8.394
 9917SOL     OW34597   2.721   6.542   8.309
 9917SOL    HW134598   2.775   6.473   8.357
 9917SOL    HW234599   2.689   6.611   8.375
 9918SOL     OW34600   2.945   6.570   7.535
 9918SOL    HW134601   2.922   6.623   7.453
 9918SOL    HW234602   3.026   6.514   7.516
 9919SOL     OW34603   3.723   7.155   8.299
 9919SOL    HW134604   3.652   7.143   8.229
 9919SOL    HW234605   3.724   7.076   8.359
 9920SOL     OW34606   2.083   6.900   9.292
 9920SOL    HW134607   2.018   6.827   9.271
 9920SOL    HW234608   2.087   6.914   9.390
 9921SOL     OW34609   1.941   6.826   8.101
 9921SOL    HW134610   1.940   6.779   8.189
 9921SOL    HW234611   2.023   6.798   8.050
 9922SOL     OW34612   2.534   6.977   9.072
 9922SOL    HW134613   2.456   6.927   9.110
 9922SOL    HW234614   2.531   7.072   9.103
 9923SOL     OW34615   3.686   5.778   8.675
 9923SOL    HW134616   3.682   5.688   8.719
 9923SOL    HW234617   3.689   5.767   8.576
 9924SOL     OW34618   2.290   6.010   7.968
 9924SOL    HW134619   2.320   5.938   7.906
 9924SOL    HW234620   2.251   5.970   8.051
 9925SOL     OW34621   3.567   7.073   8.552
 9925SOL    HW134622   3.474   7.048   8.525
 9925SOL    HW234623   3.593   7.023   8.634
 9926SOL     OW34624   2.179   6.133   8.728
 9926SOL    HW134625   2.217   6.074   8.800
 9926SOL    HW234626   2.219   6.107   8.640
 9927SOL     OW34627   2.674   7.172   8.135
 9927SOL    HW134628   2.706   7.182   8.041
 9927SOL    HW234629   2.595   7.110   8.137
 9928SOL     OW34630   2.863   5.620   8.602
 9928SOL    HW134631   2.800   5.548   8.571
 9928SOL    HW234632   2.956   5.584   8.602
 9929SOL     OW34633   2.632   6.916   7.749
 9929SOL    HW134634   2.586   6.829   7.766
 9929SOL    HW234635   2.723   6.913   7.790
 9930SOL     OW34636   2.480   7.153   8.732
 9930SOL    HW134637   2.475   7.235   8.789
 9930SOL    HW234638   2.569   7.150   8.687
 9931SOL     OW34639   3.214   5.638   7.616
 9931SOL    HW134640   3.249   5.597   7.532
 9931SOL    HW234641   3.124   5.600   7.636
 9932SOL     OW34642   3.162   6.039   8.139
 9932SOL    HW134643   3.103   6.119   8.143
 9932SOL    HW234644   3.177   6.004   8.232
 9933SOL     OW34645   3.455   5.807   8.330
 9933SOL    HW134646   3.371   5.806   8.384
 9933SOL    HW234647   3.457   5.890   8.274
 9934SOL     OW34648   1.901   6.663   7.748
 9934SOL    HW134649   2.000   6.652   7.739
 9934SOL    HW234650   1.861   6.577   7.780
 9935SOL     OW34651   2.737   7.232   7.785
 9935SOL    HW134652   2.660   7.197   7.731
 9935SOL    HW234653   2.705   7.303   7.847
 9936SOL     OW34654   2.092   6.214   9.423
 9936SOL    HW134655   1.999   6.212   9.460
 9936SOL    HW234656   2.093   6.175   9.331
 9937SOL     OW34657   3.617   6.193   9.541
 9937SOL    HW134658   3.605   6.180   9.442
 9937SOL    HW234659   3.587   6.112   9.590
 9938SOL     OW34660   2.093   7.299   9.793
 9938SOL    HW134661   2.127   7.376   9.847
 9938SOL    HW234662   2.137   7.299   9.703
 9939SOL     OW34663   2.092   7.020   9.848
 9939SOL    HW134664   2.066   7.116   9.848
 9939SOL    HW234665   2.021   6.966   9.893
 9940SOL     OW34666   2.468   6.550   9.433
 9940SOL    HW134667   2.475   6.634   9.379
 9940SOL    HW234668   2.514   6.563   9.521
 9941SOL     OW34669   1.984   6.229   9.873
 9941SOL    HW134670   1.939   6.141   9.890
 9941SOL    HW234671   1.983   6.283   9.957
 9942SOL     OW34672   3.704   7.353   9.669
 9942SOL    HW134673   3.758   7.324   9.749
 9942SOL    HW234674   3.734   7.443   9.640
 9943SOL     OW34675   1.889   7.182   9.427
 9943SOL    HW134676   1.870   7.086   9.448
 9943SOL    HW234677   1.856   7.240   9.502
 9944SOL     OW34678   3.551   6.508   9.922
 9944SOL    HW134679   3.646   6.479   9.930
 9944SOL    HW234680   3.543   6.573   9.847
 9945SOL     OW34681   3.503   6.694   9.742
 9945SOL    HW134682   3.589   6.696   9.690
 9945SOL    HW234683   3.517   6.741   9.830
 9946SOL     OW34684   2.475   6.951  10.036
 9946SOL    HW134685   2.426   6.864  10.045
 9946SOL    HW234686   2.452   6.994   9.949
 9947SOL     OW34687   3.387   6.585   9.500
 9947SOL    HW134688   3.324   6.509   9.513
 9947SOL    HW234689   3.435   6.603   9.586
 9948SOL     OW34690   2.460   6.315   9.580
 9948SOL    HW134691   2.484   6.384   9.512
 9948SOL    HW234692   2.382   6.348   9.634
 9949SOL     OW34693   3.438   7.248   9.617
 9949SOL    HW134694   3.527   7.294   9.620
 9949SOL    HW234695   3.417   7.224   9.522
 9950SOL     OW34696   2.903   6.287   9.739
 9950SOL    HW134697   2.929   6.283   9.835
 9950SOL    HW234698   2.818   6.236   9.725
 9951SOL     OW34699   1.938   6.397  10.099
 9951SOL    HW134700   2.037   6.385  10.108
 9951SOL    HW234701   1.914   6.492  10.120
 9952SOL     OW34702   2.727   5.934   9.505
 9952SOL    HW134703   2.786   5.997   9.456
 9952SOL    HW234704   2.746   5.840   9.476
 9953SOL     OW34705   2.870   7.042   9.787
 9953SOL    HW134706   2.824   7.114   9.735
 9953SOL    HW234707   2.866   7.062   9.885
 9954SOL     OW34708   2.213   7.387  10.163
 9954SOL    HW134709   2.263   7.301  10.169
 9954SOL    HW234710   2.278   7.464  10.160
 9955SOL     OW34711   2.183   6.529   9.552
 9955SOL    HW134712   2.265   6.568   9.510
 9955SOL    HW234713   2.156   6.447   9.503
 9956SOL     OW34714   2.973   7.362   9.547
 9956SOL    HW134715   2.913   7.300   9.597
 9956SOL    HW234716   3.004   7.318   9.462
 9957SOL     OW34717   3.494   6.963   9.391
 9957SOL    HW134718   3.462   7.057   9.381
 9957SOL    HW234719   3.418   6.900   9.379
 9958SOL     OW34720   2.326   7.329   9.633
 9958SOL    HW134721   2.359   7.368   9.719
 9958SOL    HW234722   2.402   7.322   9.568
 9959SOL     OW34723   2.244   6.286   9.790
 9959SOL    HW134724   2.289   6.196   9.787
 9959SOL    HW234725   2.150   6.275   9.823
 9960SOL     OW34726   2.476   5.708   9.427
 9960SOL    HW134727   2.574   5.686   9.434
 9960SOL    HW234728   2.445   5.691   9.334
 9961SOL     OW34729   2.401   5.650   9.822
 9961SOL    HW134730   2.320   5.651   9.880
 9961SOL    HW234731   2.404   5.733   9.767
 9962SOL     OW34732   3.296   6.774   9.351
 9962SOL    HW134733   3.328   6.698   9.408
 9962SOL    HW234734   3.204   6.801   9.381
 9963SOL     OW34735   2.321   6.738  10.051
 9963SOL    HW134736   2.250   6.711  10.116
 9963SOL    HW234737   2.295   6.710   9.958
 9964SOL     OW34738   3.133   7.383   9.901
 9964SOL    HW134739   3.177   7.447   9.837
 9964SOL    HW234740   3.083   7.435   9.971
 9965SOL     OW34741   2.894   6.135   9.326
 9965SOL    HW134742   2.853   6.217   9.287
 9965SOL    HW234743   2.958   6.161   9.399
 9966SOL     OW34744   2.728   6.040   9.952
 9966SOL    HW134745   2.696   6.112   9.890
 9966SOL    HW234746   2.752   5.959   9.899
 9967SOL     OW34747   3.719   6.419   9.687
 9967SOL    HW134748   3.761   6.355   9.751
 9967SOL    HW234749   3.681   6.368   9.609
 9968SOL     OW34750   2.350   6.971   9.484
 9968SOL    HW134751   2.263   6.956   9.531
 9968SOL    HW234752   2.333   6.997   9.389
 9969SOL     OW34753   3.252   6.161   9.388
 9969SOL    HW134754   3.198   6.140   9.469
 9969SOL    HW234755   3.343   6.120   9.397
 9970SOL     OW34756   2.389   5.842   9.638
 9970SOL    HW134757   2.416   5.783   9.563
 9970SOL    HW234758   2.389   5.937   9.607
 9971SOL     OW34759   2.567   6.636   9.678
 9971SOL    HW134760   2.553   6.643   9.777
 9971SOL    HW234761   2.651   6.585   9.660
 9972SOL     OW34762   3.444   6.225   9.782
 9972SOL    HW134763   3.413   6.286   9.855
 9972SOL    HW234764   3.494   6.277   9.713
 9973SOL     OW34765   3.071   6.111   9.585
 9973SOL    HW134766   3.084   6.027   9.639
 9973SOL    HW234767   3.042   6.185   9.645
 9974SOL     OW34768   2.169   5.649   9.928
 9974SOL    HW134769   2.158   5.743   9.961
 9974SOL    HW234770   2.164   5.586  10.005
 9975SOL     OW34771   3.484   5.953   9.684
 9975SOL    HW134772   3.486   5.877   9.748
 9975SOL    HW234773   3.436   6.030   9.724
 9976SOL     OW34774   3.402   5.860   9.435
 9976SOL    HW134775   3.341   5.785   9.458
 9976SOL    HW234776   3.424   5.912   9.518
 9977SOL     OW34777   3.165   6.424   9.352
 9977SOL    HW134778   3.199   6.331   9.367
 9977SOL    HW234779   3.183   6.451   9.257
 9978SOL     OW34780   1.870   6.912   9.510
 9978SOL    HW134781   1.777   6.933   9.479
 9978SOL    HW234782   1.880   6.813   9.523
 9979SOL     OW34783   2.677   6.158   9.635
 9979SOL    HW134784   2.684   6.069   9.589
 9979SOL    HW234785   2.583   6.192   9.627
 9980SOL     OW34786   2.335   6.086   9.501
 9980SOL    HW134787   2.396   6.166   9.505
 9980SOL    HW234788   2.240   6.117   9.508
 9981SOL     OW34789   3.164   6.441   9.619
 9981SOL    HW134790   3.078   6.410   9.661
 9981SOL    HW234791   3.160   6.427   9.520
 9982SOL     OW34792   3.588   5.721   9.833
 9982SOL    HW134793   3.661   5.704   9.766
 9982SOL    HW234794   3.557   5.634   9.871
 9983SOL     OW34795   3.250   7.159   9.787
 9983SOL    HW134796   3.317   7.171   9.713
 9983SOL    HW234797   3.210   7.248   9.810
 9984SOL     OW34798   2.534   7.202   9.464
 9984SOL    HW134799   2.543   7.212   9.365
 9984SOL    HW234800   2.494   7.113   9.485
 9985SOL     OW34801   3.056   7.198   9.341
 9985SOL    HW134802   3.062   7.105   9.378
 9985SOL    HW234803   2.997   7.198   9.261
 9986SOL     OW34804   2.778   6.496   9.601
 9986SOL    HW134805   2.841   6.534   9.533
 9986SOL    HW234806   2.818   6.413   9.640
 9987SOL     OW34807   3.366   7.193   9.354
 9987SOL    HW134808   3.274   7.230   9.361
 9987SOL    HW234809   3.404   7.213   9.264
 9988SOL     OW34810   2.452   7.073   9.801
 9988SOL    HW134811   2.494   7.015   9.731
 9988SOL    HW234812   2.408   7.152   9.757
 9989SOL     OW34813   2.117   6.934   9.600
 9989SOL    HW134814   2.021   6.935   9.573
 9989SOL    HW234815   2.129   6.987   9.684
 9990SOL     OW34816   2.456   6.331   9.962
 9990SOL    HW134817   2.506   6.416   9.943
 9990SOL    HW234818   2.368   6.333   9.914
 9991SOL     OW34819   2.721   6.960   9.326
 9991SOL    HW134820   2.675   6.975   9.414
 9991SOL    HW234821   2.765   7.045   9.296
 9992SOL     OW34822   2.945   6.570   9.397
 9992SOL    HW134823   2.922   6.623   9.315
 9992SOL    HW234824   3.026   6.514   9.378
 9993SOL     OW34825   1.941   6.826   9.963
 9993SOL    HW134826   1.940   6.779  10.051
 9993SOL    HW234827   2.023   6.798   9.912
 9994SOL     OW34828   2.290   6.010   9.830
 9994SOL    HW134829   2.320   5.938   9.768
 9994SOL    HW234830   2.251   5.970   9.913
 9995SOL     OW34831   2.632   6.916   9.611
 9995SOL    HW134832   2.586   6.829   9.628
 9995SOL    HW234833   2.723   6.913   9.652
 9996SOL     OW34834   1.901   6.663   9.610
 9996SOL    HW134835   2.000   6.652   9.601
 9996SOL    HW234836   1.861   6.577   9.642
 9997SOL     OW34837   2.737   7.232   9.647
 9997SOL    HW134838   2.660   7.197   9.593
 9997SOL    HW234839   2.705   7.303   9.709
 9998SOL     OW34840   1.881   7.816   0.647
 9998SOL    HW134841   1.799   7.859   0.686
 9998SOL    HW234842   1.853   7.743   0.584
 9999SOL     OW34843   2.431   8.723   1.165
 9999SOL    HW134844   2.338   8.716   1.128
 9999SOL    HW234845   2.442   8.812   1.209
10000SOL     OW34846   3.417   8.959   0.703
10000SOL    HW134847   3.360   8.943   0.784
10000SOL    HW234848   3.358   8.969   0.623
10001SOL     OW34849   2.997   8.151   0.717
10001SOL    HW134850   3.054   8.229   0.692
10001SOL    HW234851   2.937   8.177   0.793
10002SOL     OW34852   3.617   8.055   0.231
10002SOL    HW134853   3.605   8.042   0.132
10002SOL    HW234854   3.587   7.974   0.280
10003SOL     OW34855   2.630   8.592   1.023
10003SOL    HW134856   2.552   8.609   1.083
10003SOL    HW234857   2.664   8.679   0.987
10004SOL     OW34858   2.712   8.246   1.823
10004SOL    HW134859   2.708   8.322   1.888
10004SOL    HW234860   2.734   8.282   1.732
10005SOL     OW34861   2.547   8.460   0.665
10005SOL    HW134862   2.616   8.444   0.735
10005SOL    HW234863   2.474   8.517   0.703
10006SOL     OW34864   2.548   8.609   1.803
10006SOL    HW134865   2.608   8.688   1.817
10006SOL    HW234866   2.462   8.640   1.762
10007SOL     OW34867   2.197   8.883   1.061
10007SOL    HW134868   2.119   8.852   1.008
10007SOL    HW234869   2.255   8.941   1.004
10008SOL     OW34870   3.322   8.953   1.339
10008SOL    HW134871   3.346   9.047   1.365
10008SOL    HW234872   3.306   8.899   1.421
10009SOL     OW34873   2.300   7.840   1.499
10009SOL    HW134874   2.382   7.784   1.508
10009SOL    HW234875   2.219   7.782   1.503
10010SOL     OW34876   2.093   9.161   0.483
10010SOL    HW134877   2.127   9.238   0.537
10010SOL    HW234878   2.137   9.161   0.393
10011SOL     OW34879   2.989   8.789   1.690
10011SOL    HW134880   3.036   8.789   1.778
10011SOL    HW234881   2.941   8.702   1.679
10012SOL     OW34882   2.092   8.882   0.538
10012SOL    HW134883   2.066   8.978   0.538
10012SOL    HW234884   2.021   8.828   0.583
10013SOL     OW34885   2.102   8.539   0.886
10013SOL    HW134886   2.116   8.455   0.938
10013SOL    HW234887   2.047   8.603   0.941
10014SOL     OW34888   2.468   8.412   0.123
10014SOL    HW134889   2.475   8.496   0.069
10014SOL    HW234890   2.514   8.425   0.211
10015SOL     OW34891   3.456   7.562   1.480
10015SOL    HW134892   3.438   7.629   1.408
10015SOL    HW234893   3.453   7.608   1.569
10016SOL     OW34894   3.704   9.215   0.359
10016SOL    HW134895   3.758   9.186   0.439
10016SOL    HW234896   3.734   9.305   0.330
10017SOL     OW34897   1.889   9.044   0.117
10017SOL    HW134898   1.870   8.948   0.138
10017SOL    HW234899   1.856   9.102   0.192
10018SOL     OW34900   3.551   8.370   0.612
10018SOL    HW134901   3.646   8.341   0.620
10018SOL    HW234902   3.543   8.435   0.537
10019SOL     OW34903   3.503   8.556   0.432
10019SOL    HW134904   3.589   8.558   0.380
10019SOL    HW234905   3.517   8.603   0.520
10020SOL     OW34906   2.475   8.813   0.726
10020SOL    HW134907   2.426   8.726   0.735
10020SOL    HW234908   2.452   8.856   0.639
10021SOL     OW34909   2.671   7.452   0.502
10021SOL    HW134910   2.711   7.543   0.493
10021SOL    HW234911   2.571   7.460   0.508
10022SOL     OW34912   3.387   8.447   0.190
10022SOL    HW134913   3.324   8.371   0.203
10022SOL    HW234914   3.435   8.465   0.276
10023SOL     OW34915   3.049   9.240   1.616
10023SOL    HW134916   3.073   9.300   1.540
10023SOL    HW234917   3.056   9.145   1.586
10024SOL     OW34918   2.179   7.699   1.801
10024SOL    HW134919   2.250   7.770   1.807
10024SOL    HW234920   2.091   7.738   1.829
10025SOL     OW34921   3.328   8.865   0.953
10025SOL    HW134922   3.269   8.871   1.033
10025SOL    HW234923   3.313   8.777   0.907
10026SOL     OW34924   3.529   9.162   0.572
10026SOL    HW134925   3.488   9.139   0.484
10026SOL    HW234926   3.511   9.088   0.637
10027SOL     OW34927   2.460   8.177   0.270
10027SOL    HW134928   2.484   8.246   0.202
10027SOL    HW234929   2.382   8.210   0.324
10028SOL     OW34930   3.438   9.110   0.307
10028SOL    HW134931   3.527   9.156   0.310
10028SOL    HW234932   3.417   9.086   0.212
10029SOL     OW34933   2.669   8.053   1.465
10029SOL    HW134934   2.622   8.050   1.554
10029SOL    HW234935   2.618   7.998   1.399
10030SOL     OW34936   3.256   7.917   1.674
10030SOL    HW134937   3.236   7.960   1.762
10030SOL    HW234938   3.334   7.855   1.683
10031SOL     OW34939   2.835   8.338   1.572
10031SOL    HW134940   2.881   8.254   1.543
10031SOL    HW234941   2.779   8.372   1.497
10032SOL     OW34942   2.853   7.858   1.242
10032SOL    HW134943   2.776   7.892   1.296
10032SOL    HW234944   2.819   7.807   1.163
10033SOL     OW34945   2.903   8.149   0.429
10033SOL    HW134946   2.929   8.145   0.525
10033SOL    HW234947   2.818   8.098   0.415
10034SOL     OW34948   1.938   8.259   0.789
10034SOL    HW134949   2.037   8.247   0.798
10034SOL    HW234950   1.914   8.354   0.810
10035SOL     OW34951   1.992   9.269   1.571
10035SOL    HW134952   1.982   9.254   1.670
10035SOL    HW234953   1.906   9.305   1.535
10036SOL     OW34954   2.727   7.796   0.195
10036SOL    HW134955   2.786   7.859   0.146
10036SOL    HW234956   2.746   7.702   0.166
10037SOL     OW34957   3.581   8.033   1.831
10037SOL    HW134958   3.555   8.122   1.795
10037SOL    HW234959   3.579   7.965   1.758
10038SOL     OW34960   3.224   8.592   0.545
10038SOL    HW134961   3.307   8.563   0.497
10038SOL    HW234962   3.175   8.659   0.489
10039SOL     OW34963   2.412   7.644   0.885
10039SOL    HW134964   2.407   7.639   0.985
10039SOL    HW234965   2.414   7.740   0.856
10040SOL     OW34966   2.870   8.904   0.477
10040SOL    HW134967   2.824   8.976   0.425
10040SOL    HW234968   2.866   8.924   0.575
10041SOL     OW34969   2.213   9.249   0.853
10041SOL    HW134970   2.263   9.163   0.859
10041SOL    HW234971   2.278   9.326   0.850
10042SOL     OW34972   3.657   8.514   0.873
10042SOL    HW134973   3.595   8.499   0.797
10042SOL    HW234974   3.605   8.525   0.958
10043SOL     OW34975   3.089   8.998   1.506
10043SOL    HW134976   3.095   8.921   1.570
10043SOL    HW234977   3.037   8.972   1.426
10044SOL     OW34978   2.183   8.391   0.242
10044SOL    HW134979   2.265   8.430   0.200
10044SOL    HW234980   2.156   8.309   0.193
10045SOL     OW34981   3.320   8.183   0.728
10045SOL    HW134982   3.315   8.118   0.803
10045SOL    HW234983   3.400   8.242   0.741
10046SOL     OW34984   2.323   8.714   1.727
10046SOL    HW134985   2.273   8.715   1.641
10046SOL    HW234986   2.260   8.696   1.803
10047SOL     OW34987   2.064   7.733   1.498
10047SOL    HW134988   1.984   7.793   1.485
10047SOL    HW234989   2.054   7.684   1.584
10048SOL     OW34990   2.326   9.191   0.323
10048SOL    HW134991   2.359   9.230   0.409
10048SOL    HW234992   2.402   9.184   0.258
10049SOL     OW34993   3.262   7.555   0.426
10049SOL    HW134994   3.238   7.518   0.336
10049SOL    HW234995   3.361   7.571   0.430
10050SOL     OW34996   2.111   9.233   1.241
10050SOL    HW134997   2.168   9.168   1.291
10050SOL    HW234998   2.095   9.200   1.148
10051SOL     OW34999   2.802   9.146   0.904
10051SOL    HW135000   2.882   9.089   0.925
10051SOL    HW235001   2.753   9.106   0.827
10052SOL     OW35002   3.409   7.670   1.729
10052SOL    HW135003   3.404   7.707   1.821
10052SOL    HW235004   3.337   7.601   1.717
10053SOL     OW35005   2.476   7.570   0.117
10053SOL    HW135006   2.574   7.548   0.124
10053SOL    HW235007   2.445   7.553   0.024
10054SOL     OW35008   2.643   7.712   1.749
10054SOL    HW135009   2.710   7.651   1.792
10054SOL    HW235010   2.570   7.731   1.814
10055SOL     OW35011   2.750   8.962   1.195
10055SOL    HW135012   2.727   8.937   1.101
10055SOL    HW235013   2.811   8.893   1.234
10056SOL     OW35014   3.213   8.038   1.433
10056SOL    HW135015   3.241   7.995   1.518
10056SOL    HW235016   3.238   8.134   1.434
10057SOL     OW35017   2.665   8.850   0.924
10057SOL    HW135018   2.755   8.864   0.882
10057SOL    HW235019   2.594   8.852   0.853
10058SOL     OW35020   2.784   7.951   0.899
10058SOL    HW135021   2.759   7.942   0.803
10058SOL    HW235022   2.832   7.869   0.930
10059SOL     OW35023   2.401   7.512   0.512
10059SOL    HW135024   2.320   7.513   0.570
10059SOL    HW235025   2.404   7.595   0.457
10060SOL     OW35026   3.296   8.636   0.041
10060SOL    HW135027   3.328   8.560   0.098
10060SOL    HW235028   3.204   8.663   0.071
10061SOL     OW35029   2.797   7.684   0.480
10061SOL    HW135030   2.749   7.725   0.402
10061SOL    HW235031   2.896   7.682   0.461
10062SOL     OW35032   2.938   8.131   1.464
10062SOL    HW135033   2.858   8.070   1.467
10062SOL    HW235034   3.019   8.078   1.440
10063SOL     OW35035   3.089   9.018   0.793
10063SOL    HW135036   3.110   9.092   0.728
10063SOL    HW235037   3.157   9.018   0.866
10064SOL     OW35038   2.321   8.600   0.741
10064SOL    HW135039   2.250   8.573   0.806
10064SOL    HW235040   2.295   8.572   0.648
10065SOL     OW35041   3.133   9.245   0.591
10065SOL    HW135042   3.177   9.309   0.527
10065SOL    HW235043   3.083   9.297   0.661
10066SOL     OW35044   2.894   7.997   0.016
10066SOL    HW135045   2.853   8.079  -0.023
10066SOL    HW235046   2.958   8.023   0.089
10067SOL     OW35047   1.940   8.004   1.386
10067SOL    HW135048   2.032   8.003   1.345
10067SOL    HW235049   1.934   8.078   1.453
10068SOL     OW35050   2.423   7.670   1.147
10068SOL    HW135051   2.461   7.586   1.184
10068SOL    HW235052   2.335   7.689   1.191
10069SOL     OW35053   2.728   7.902   0.642
10069SOL    HW135054   2.696   7.974   0.580
10069SOL    HW235055   2.752   7.821   0.589
10070SOL     OW35056   2.879   7.487   0.753
10070SOL    HW135057   2.807   7.492   0.684
10070SOL    HW235058   2.855   7.418   0.822
10071SOL     OW35059   3.719   8.281   0.377
10071SOL    HW135060   3.761   8.217   0.441
10071SOL    HW235061   3.681   8.230   0.299
10072SOL     OW35062   2.350   8.833   0.174
10072SOL    HW135063   2.263   8.818   0.221
10072SOL    HW235064   2.333   8.859   0.079
10073SOL     OW35065   3.526   8.728   0.657
10073SOL    HW135066   3.625   8.736   0.671
10073SOL    HW235067   3.481   8.812   0.688
10074SOL     OW35068   3.252   8.023   0.078
10074SOL    HW135069   3.198   8.002   0.159
10074SOL    HW235070   3.343   7.982   0.087
10075SOL     OW35071   2.389   7.704   0.328
10075SOL    HW135072   2.416   7.645   0.253
10075SOL    HW235073   2.389   7.799   0.297
10076SOL     OW35074   3.616   8.671   1.588
10076SOL    HW135075   3.707   8.632   1.575
10076SOL    HW235076   3.624   8.767   1.612
10077SOL     OW35077   2.926   8.795   1.340
10077SOL    HW135078   2.846   8.772   1.395
10077SOL    HW235079   3.009   8.769   1.389
10078SOL     OW35080   3.454   9.077   1.625
10078SOL    HW135081   3.481   9.111   1.535
10078SOL    HW235082   3.533   9.039   1.671
10079SOL     OW35083   2.777   7.537   1.402
10079SOL    HW135084   2.802   7.517   1.307
10079SOL    HW235085   2.849   7.593   1.444
10080SOL     OW35086   2.842   8.564   1.719
10080SOL    HW135087   2.743   8.570   1.729
10080SOL    HW235088   2.865   8.484   1.663
10081SOL     OW35089   2.567   8.498   0.368
10081SOL    HW135090   2.553   8.505   0.467
10081SOL    HW235091   2.651   8.447   0.350
10082SOL     OW35092   3.136   7.834   1.262
10082SOL    HW135093   3.157   7.908   1.326
10082SOL    HW235094   3.047   7.851   1.219
10083SOL     OW35095   1.926   9.012   1.331
10083SOL    HW135096   1.880   9.094   1.297
10083SOL    HW235097   2.024   9.031   1.340
10084SOL     OW35098   2.229   8.548   0.501
10084SOL    HW135099   2.222   8.631   0.445
10084SOL    HW235100   2.233   8.468   0.441
10085SOL     OW35101   2.428   7.985   0.865
10085SOL    HW135102   2.440   8.051   0.791
10085SOL    HW235103   2.474   8.019   0.948
10086SOL     OW35104   3.114   8.796   0.388
10086SOL    HW135105   3.164   8.873   0.428
10086SOL    HW235106   3.019   8.798   0.420
10087SOL     OW35107   3.134   8.893   1.142
10087SOL    HW135108   3.181   8.906   1.229
10087SOL    HW235109   3.068   8.819   1.151
10088SOL     OW35110   3.444   8.087   0.472
10088SOL    HW135111   3.413   8.148   0.545
10088SOL    HW235112   3.494   8.139   0.403
10089SOL     OW35113   2.216   8.958   1.329
10089SOL    HW135114   2.195   8.914   1.242
10089SOL    HW235115   2.313   8.984   1.332
10090SOL     OW35116   2.264   8.199   1.598
10090SOL    HW135117   2.332   8.254   1.551
10090SOL    HW235118   2.304   8.111   1.625
10091SOL     OW35119   3.449   8.227   1.670
10091SOL    HW135120   3.357   8.265   1.665
10091SOL    HW235121   3.509   8.274   1.605
10092SOL     OW35122   2.875   7.553   1.770
10092SOL    HW135123   2.881   7.638   1.718
10092SOL    HW235124   2.907   7.477   1.713
10093SOL     OW35125   2.366   7.498   1.740
10093SOL    HW135126   2.324   7.441   1.670
10093SOL    HW235127   2.300   7.567   1.772
10094SOL     OW35128   3.071   7.973   0.275
10094SOL    HW135129   3.084   7.889   0.329
10094SOL    HW235130   3.042   8.047   0.335
10095SOL     OW35131   1.899   8.758   1.282
10095SOL    HW135132   1.952   8.709   1.350
10095SOL    HW235133   1.921   8.856   1.287
10096SOL     OW35134   2.594   8.082   1.064
10096SOL    HW135135   2.653   8.056   0.988
10096SOL    HW235136   2.566   8.178   1.053
10097SOL     OW35137   3.590   8.383   1.854
10097SOL    HW135138   3.544   8.376   1.765
10097SOL    HW235139   3.528   8.427   1.920
10098SOL     OW35140   2.169   7.511   0.618
10098SOL    HW135141   2.158   7.605   0.651
10098SOL    HW235142   2.164   7.448   0.695
10099SOL     OW35143   3.484   7.815   0.374
10099SOL    HW135144   3.486   7.739   0.438
10099SOL    HW235145   3.436   7.892   0.414
10100SOL     OW35146   2.885   8.214   0.966
10100SOL    HW135147   2.900   8.235   1.062
10100SOL    HW235148   2.855   8.119   0.957
10101SOL     OW35149   2.842   9.021   1.700
10101SOL    HW135150   2.822   9.065   1.612
10101SOL    HW235151   2.881   8.930   1.684
10102SOL     OW35152   2.212   8.346   1.804
10102SOL    HW135153   2.288   8.390   1.852
10102SOL    HW235154   2.247   8.299   1.722
10103SOL     OW35155   3.402   7.722   0.125
10103SOL    HW135156   3.341   7.647   0.148
10103SOL    HW235157   3.424   7.774   0.208
10104SOL     OW35158   3.165   8.286   0.042
10104SOL    HW135159   3.199   8.193   0.057
10104SOL    HW235160   3.183   8.313  -0.053
10105SOL     OW35161   2.930   8.781   0.849
10105SOL    HW135162   2.937   8.697   0.794
10105SOL    HW235163   2.992   8.850   0.813
10106SOL     OW35164   2.181   8.258   0.949
10106SOL    HW135165   2.274   8.294   0.954
10106SOL    HW235166   2.175   8.173   1.001
10107SOL     OW35167   3.000   7.828   1.678
10107SOL    HW135168   2.955   7.891   1.742
10107SOL    HW235169   3.093   7.859   1.661
10108SOL     OW35170   3.022   7.655   1.477
10108SOL    HW135171   3.022   7.719   1.554
10108SOL    HW235172   3.050   7.703   1.394
10109SOL     OW35173   1.870   8.774   0.200
10109SOL    HW135174   1.777   8.795   0.169
10109SOL    HW235175   1.880   8.675   0.213
10110SOL     OW35176   1.950   9.249   0.927
10110SOL    HW135177   1.908   9.163   0.900
10110SOL    HW235178   2.044   9.252   0.893
10111SOL     OW35179   2.366   9.016   0.910
10111SOL    HW135180   2.432   9.090   0.919
10111SOL    HW235181   2.410   8.937   0.868
10112SOL     OW35182   2.864   8.244   1.238
10112SOL    HW135183   2.905   8.212   1.324
10112SOL    HW235184   2.768   8.217   1.235
10113SOL     OW35185   2.051   7.968   1.722
10113SOL    HW135186   2.110   7.928   1.652
10113SOL    HW235187   1.993   8.039   1.681
10114SOL     OW35188   3.231   8.398   1.660
10114SOL    HW135189   3.270   8.487   1.680
10114SOL    HW235190   3.241   8.378   1.563
10115SOL     OW35191   2.677   8.020   0.325
10115SOL    HW135192   2.684   7.931   0.279
10115SOL    HW235193   2.583   8.054   0.317
10116SOL     OW35194   3.519   8.052   1.206
10116SOL    HW135195   3.481   7.983   1.268
10116SOL    HW235196   3.601   8.016   1.162
10117SOL     OW35197   2.114   9.012   1.744
10117SOL    HW135198   2.084   9.069   1.820
10117SOL    HW235199   2.107   8.915   1.770
10118SOL     OW35200   2.533   7.912   1.269
10118SOL    HW135201   2.499   7.823   1.239
10118SOL    HW235202   2.559   7.966   1.189
10119SOL     OW35203   2.792   9.126   1.465
10119SOL    HW135204   2.768   9.108   1.370
10119SOL    HW235205   2.822   9.220   1.475
10120SOL     OW35206   2.335   7.948   0.191
10120SOL    HW135207   2.396   8.028   0.195
10120SOL    HW235208   2.240   7.979   0.198
10121SOL     OW35209   2.021   8.585   1.466
10121SOL    HW135210   2.043   8.524   1.542
10121SOL    HW235211   2.031   8.536   1.380
10122SOL     OW35212   3.164   8.303   0.309
10122SOL    HW135213   3.078   8.272   0.351
10122SOL    HW235214   3.160   8.289   0.210
10123SOL     OW35215   3.621   9.195   1.154
10123SOL    HW135216   3.682   9.225   1.081
10123SOL    HW235217   3.583   9.106   1.132
10124SOL     OW35218   3.114   9.179   1.128
10124SOL    HW135219   3.198   9.184   1.074
10124SOL    HW235220   3.091   9.083   1.146
10125SOL     OW35221   1.945   8.706   1.022
10125SOL    HW135222   1.940   8.705   1.122
10125SOL    HW235223   1.862   8.665   0.984
10126SOL     OW35224   2.765   7.534   0.133
10126SOL    HW135225   2.816   7.535   0.047
10126SOL    HW235226   2.821   7.492   0.204
10127SOL     OW35227   3.588   7.583   0.523
10127SOL    HW135228   3.661   7.566   0.456
10127SOL    HW235229   3.557   7.496   0.561
10128SOL     OW35230   3.250   9.021   0.477
10128SOL    HW135231   3.317   9.033   0.403
10128SOL    HW235232   3.210   9.110   0.500
10129SOL     OW35233   1.992   9.242   1.851
10129SOL    HW135234   1.951   9.168   1.904
10129SOL    HW235235   2.056   9.293   1.909
10130SOL     OW35236   3.142   8.375   0.672
10130SOL    HW135237   3.202   8.294   0.674
10130SOL    HW235238   3.182   8.444   0.612
10131SOL     OW35239   2.692   8.721   1.422
10131SOL    HW135240   2.687   8.754   1.517
10131SOL    HW235241   2.606   8.740   1.376
10132SOL     OW35242   2.534   9.064   0.154
10132SOL    HW135243   2.543   9.074   0.055
10132SOL    HW235244   2.494   8.975   0.175
10133SOL     OW35245   3.512   9.168   1.394
10133SOL    HW135246   3.565   9.178   1.310
10133SOL    HW235247   3.485   9.258   1.428
10134SOL     OW35248   3.703   7.623   0.963
10134SOL    HW135249   3.742   7.538   0.927
10134SOL    HW235250   3.605   7.625   0.944
10135SOL     OW35251   2.125   7.774   0.720
10135SOL    HW135252   2.046   7.825   0.686
10135SOL    HW235253   2.116   7.759   0.818
10136SOL     OW35254   3.056   9.060   0.031
10136SOL    HW135255   3.062   8.967   0.068
10136SOL    HW235256   2.997   9.060  -0.049
10137SOL     OW35257   2.684   8.450   1.372
10137SOL    HW135258   2.724   8.449   1.280
10137SOL    HW235259   2.694   8.542   1.412
10138SOL     OW35260   2.778   8.358   0.291
10138SOL    HW135261   2.841   8.396   0.223
10138SOL    HW235262   2.818   8.275   0.330
10139SOL     OW35263   3.366   9.055   0.044
10139SOL    HW135264   3.274   9.092   0.051
10139SOL    HW235265   3.404   9.075  -0.046
10140SOL     OW35266   2.234   8.736   1.490
10140SOL    HW135267   2.221   8.829   1.456
10140SOL    HW235268   2.150   8.684   1.477
10141SOL     OW35269   3.476   8.740   1.289
10141SOL    HW135270   3.536   8.743   1.369
10141SOL    HW235271   3.401   8.804   1.302
10142SOL     OW35272   2.901   8.546   0.696
10142SOL    HW135273   2.831   8.499   0.750
10142SOL    HW235274   2.960   8.478   0.653
10143SOL     OW35275   2.876   7.684   0.971
10143SOL    HW135276   2.868   7.648   0.878
10143SOL    HW235277   2.874   7.608   1.036
10144SOL     OW35278   2.452   8.935   0.491
10144SOL    HW135279   2.494   8.877   0.421
10144SOL    HW235280   2.408   9.014   0.447
10145SOL     OW35281   3.571   7.833   1.381
10145SOL    HW135282   3.644   7.902   1.385
10145SOL    HW235283   3.599   7.758   1.322
10146SOL     OW35284   2.117   8.796   0.290
10146SOL    HW135285   2.021   8.797   0.263
10146SOL    HW235286   2.129   8.849   0.374
10147SOL     OW35287   1.967   8.461   1.726
10147SOL    HW135288   1.890   8.428   1.780
10147SOL    HW235289   2.052   8.431   1.768
10148SOL     OW35290   2.534   7.651   1.489
10148SOL    HW135291   2.624   7.635   1.449
10148SOL    HW235292   2.542   7.656   1.588
10149SOL     OW35293   1.937   7.793   0.033
10149SOL    HW135294   1.845   7.765   0.004
10149SOL    HW235295   1.968   7.870  -0.023
10150SOL     OW35296   3.302   8.304   1.398
10150SOL    HW135297   3.245   8.356   1.335
10150SOL    HW235298   3.398   8.316   1.374
10151SOL     OW35299   1.934   7.614   0.318
10151SOL    HW135300   1.917   7.697   0.264
10151SOL    HW235301   2.024   7.577   0.296
10152SOL     OW35302   3.045   8.783   0.119
10152SOL    HW135303   2.946   8.772   0.121
10152SOL    HW235304   3.079   8.798   0.212
10153SOL     OW35305   3.355   9.215   0.959
10153SOL    HW135306   3.388   9.279   0.890
10153SOL    HW235307   3.421   9.209   1.034
10154SOL     OW35308   2.578   8.013   1.708
10154SOL    HW135309   2.597   8.078   1.782
10154SOL    HW235310   2.638   7.933   1.717
10155SOL     OW35311   3.312   8.668   1.633
10155SOL    HW135312   3.303   8.658   1.732
10155SOL    HW235313   3.408   8.661   1.607
10156SOL     OW35314   2.252   9.189   1.560
10156SOL    HW135315   2.161   9.230   1.558
10156SOL    HW235316   2.245   9.095   1.592
10157SOL     OW35317   3.536   8.331   1.254
10157SOL    HW135318   3.509   8.242   1.217
10157SOL    HW235319   3.537   8.399   1.181
10158SOL     OW35320   2.456   8.193   0.652
10158SOL    HW135321   2.506   8.278   0.633
10158SOL    HW235322   2.368   8.195   0.604
10159SOL     OW35323   3.639   7.790   1.642
10159SOL    HW135324   3.622   7.821   1.548
10159SOL    HW235325   3.555   7.753   1.680
10160SOL     OW35326   3.592   8.382   1.517
10160SOL    HW135327   3.630   8.473   1.532
10160SOL    HW235328   3.584   8.365   1.418
10161SOL     OW35329   2.721   8.822   0.016
10161SOL    HW135330   2.675   8.837   0.104
10161SOL    HW235331   2.765   8.907  -0.014
10162SOL     OW35332   2.523   9.238   0.953
10162SOL    HW135333   2.477   9.326   0.940
10162SOL    HW235334   2.622   9.250   0.946
10163SOL     OW35335   2.721   8.404   0.861
10163SOL    HW135336   2.775   8.335   0.909
10163SOL    HW235337   2.689   8.473   0.927
10164SOL     OW35338   2.945   8.432   0.087
10164SOL    HW135339   2.922   8.485   0.005
10164SOL    HW235340   3.026   8.376   0.068
10165SOL     OW35341   3.723   9.017   0.851
10165SOL    HW135342   3.652   9.005   0.781
10165SOL    HW235343   3.724   8.938   0.911
10166SOL     OW35344   2.083   8.762   1.844
10166SOL    HW135345   2.018   8.689   1.823
10166SOL    HW235346   2.087   8.776   1.942
10167SOL     OW35347   1.941   8.688   0.653
10167SOL    HW135348   1.940   8.641   0.741
10167SOL    HW235349   2.023   8.660   0.602
10168SOL     OW35350   2.534   8.839   1.624
10168SOL    HW135351   2.456   8.789   1.662
10168SOL    HW235352   2.531   8.934   1.655
10169SOL     OW35353   3.686   7.640   1.227
10169SOL    HW135354   3.682   7.550   1.271
10169SOL    HW235355   3.689   7.629   1.128
10170SOL     OW35356   2.290   7.872   0.520
10170SOL    HW135357   2.320   7.800   0.458
10170SOL    HW235358   2.251   7.832   0.603
10171SOL     OW35359   3.567   8.935   1.104
10171SOL    HW135360   3.474   8.910   1.077
10171SOL    HW235361   3.593   8.885   1.186
10172SOL     OW35362   2.674   9.034   0.687
10172SOL    HW135363   2.706   9.044   0.593
10172SOL    HW235364   2.595   8.972   0.689
10173SOL     OW35365   3.286   7.662   1.112
10173SOL    HW135366   3.338   7.597   1.167
10173SOL    HW235367   3.237   7.725   1.173
10174SOL     OW35368   2.863   7.482   1.154
10174SOL    HW135369   2.800   7.410   1.123
10174SOL    HW235370   2.956   7.446   1.154
10175SOL     OW35371   2.632   8.778   0.301
10175SOL    HW135372   2.586   8.691   0.318
10175SOL    HW235373   2.723   8.775   0.342
10176SOL     OW35374   2.480   9.015   1.284
10176SOL    HW135375   2.475   9.097   1.341
10176SOL    HW235376   2.569   9.012   1.239
10177SOL     OW35377   3.214   7.500   0.168
10177SOL    HW135378   3.249   7.459   0.084
10177SOL    HW235379   3.124   7.462   0.188
10178SOL     OW35380   2.737   9.094   0.337
10178SOL    HW135381   2.660   9.059   0.283
10178SOL    HW235382   2.705   9.165   0.399
10179SOL     OW35383   2.092   8.076   1.975
10179SOL    HW135384   1.999   8.074   2.012
10179SOL    HW235385   2.093   8.037   1.883
10180SOL     OW35386   2.087   7.723   2.858
10180SOL    HW135387   2.122   7.706   2.950
10180SOL    HW235388   1.999   7.678   2.846
10181SOL     OW35389   1.881   7.816   2.509
10181SOL    HW135390   1.799   7.859   2.548
10181SOL    HW235391   1.853   7.743   2.446
10182SOL     OW35392   2.431   8.723   3.027
10182SOL    HW135393   2.338   8.716   2.990
10182SOL    HW235394   2.442   8.812   3.071
10183SOL     OW35395   3.417   8.959   2.565
10183SOL    HW135396   3.360   8.943   2.646
10183SOL    HW235397   3.358   8.969   2.485
10184SOL     OW35398   2.997   8.151   2.579
10184SOL    HW135399   3.054   8.229   2.554
10184SOL    HW235400   2.937   8.177   2.655
10185SOL     OW35401   3.617   8.055   2.093
10185SOL    HW135402   3.605   8.042   1.994
10185SOL    HW235403   3.587   7.974   2.142
10186SOL     OW35404   2.630   8.592   2.885
10186SOL    HW135405   2.552   8.609   2.945
10186SOL    HW235406   2.664   8.679   2.849
10187SOL     OW35407   2.712   8.246   3.685
10187SOL    HW135408   2.708   8.322   3.750
10187SOL    HW235409   2.734   8.282   3.594
10188SOL     OW35410   2.548   8.609   3.665
10188SOL    HW135411   2.608   8.688   3.679
10188SOL    HW235412   2.462   8.640   3.624
10189SOL     OW35413   2.197   8.883   2.923
10189SOL    HW135414   2.119   8.852   2.870
10189SOL    HW235415   2.255   8.941   2.866
10190SOL     OW35416   3.322   8.953   3.201
10190SOL    HW135417   3.346   9.047   3.227
10190SOL    HW235418   3.306   8.899   3.283
10191SOL     OW35419   2.300   7.840   3.361
10191SOL    HW135420   2.382   7.784   3.370
10191SOL    HW235421   2.219   7.782   3.365
10192SOL     OW35422   3.465   7.895   2.599
10192SOL    HW135423   3.391   7.941   2.549
10192SOL    HW235424   3.516   7.963   2.652
10193SOL     OW35425   2.093   9.161   2.345
10193SOL    HW135426   2.127   9.238   2.399
10193SOL    HW235427   2.137   9.161   2.255
10194SOL     OW35428   2.989   8.789   3.552
10194SOL    HW135429   3.036   8.789   3.640
10194SOL    HW235430   2.941   8.702   3.541
10195SOL     OW35431   2.092   8.882   2.400
10195SOL    HW135432   2.066   8.978   2.400
10195SOL    HW235433   2.021   8.828   2.445
10196SOL     OW35434   2.102   8.539   2.748
10196SOL    HW135435   2.116   8.455   2.800
10196SOL    HW235436   2.047   8.603   2.803
10197SOL     OW35437   2.468   8.412   1.985
10197SOL    HW135438   2.475   8.496   1.931
10197SOL    HW235439   2.514   8.425   2.073
10198SOL     OW35440   3.456   7.562   3.342
10198SOL    HW135441   3.438   7.629   3.270
10198SOL    HW235442   3.453   7.608   3.431
10199SOL     OW35443   1.984   8.091   2.425
10199SOL    HW135444   1.939   8.003   2.442
10199SOL    HW235445   1.983   8.145   2.509
10200SOL     OW35446   3.704   9.215   2.221
10200SOL    HW135447   3.758   9.186   2.301
10200SOL    HW235448   3.734   9.305   2.192
10201SOL     OW35449   1.889   9.044   1.979
10201SOL    HW135450   1.870   8.948   2.000
10201SOL    HW235451   1.856   9.102   2.054
10202SOL     OW35452   3.551   8.370   2.474
10202SOL    HW135453   3.646   8.341   2.482
10202SOL    HW235454   3.543   8.435   2.399
10203SOL     OW35455   3.503   8.556   2.294
10203SOL    HW135456   3.589   8.558   2.242
10203SOL    HW235457   3.517   8.603   2.382
10204SOL     OW35458   1.975   8.185   3.459
10204SOL    HW135459   2.063   8.172   3.504
10204SOL    HW235460   1.962   8.282   3.437
10205SOL     OW35461   3.155   8.676   3.285
10205SOL    HW135462   3.192   8.603   3.227
10205SOL    HW235463   3.207   8.681   3.370
10206SOL     OW35464   2.671   7.452   2.364
10206SOL    HW135465   2.711   7.543   2.355
10206SOL    HW235466   2.571   7.460   2.370
10207SOL     OW35467   2.059   8.424   3.126
10207SOL    HW135468   2.148   8.379   3.112
10207SOL    HW235469   1.986   8.359   3.107
10208SOL     OW35470   3.387   8.447   2.052
10208SOL    HW135471   3.324   8.371   2.065
10208SOL    HW235472   3.435   8.465   2.138
10209SOL     OW35473   3.049   9.240   3.478
10209SOL    HW135474   3.073   9.300   3.402
10209SOL    HW235475   3.056   9.145   3.448
10210SOL     OW35476   2.179   7.699   3.663
10210SOL    HW135477   2.250   7.770   3.669
10210SOL    HW235478   2.091   7.738   3.691
10211SOL     OW35479   3.328   8.865   2.815
10211SOL    HW135480   3.269   8.871   2.895
10211SOL    HW235481   3.313   8.777   2.769
10212SOL     OW35482   3.529   9.162   2.434
10212SOL    HW135483   3.488   9.139   2.346
10212SOL    HW235484   3.511   9.088   2.499
10213SOL     OW35485   2.460   8.177   2.132
10213SOL    HW135486   2.484   8.246   2.064
10213SOL    HW235487   2.382   8.210   2.186
10214SOL     OW35488   3.143   7.793   2.806
10214SOL    HW135489   3.057   7.743   2.793
10214SOL    HW235490   3.205   7.739   2.862
10215SOL     OW35491   3.438   9.110   2.169
10215SOL    HW135492   3.527   9.156   2.172
10215SOL    HW235493   3.417   9.086   2.074
10216SOL     OW35494   2.669   8.053   3.327
10216SOL    HW135495   2.622   8.050   3.416
10216SOL    HW235496   2.618   7.998   3.261
10217SOL     OW35497   3.256   7.917   3.536
10217SOL    HW135498   3.236   7.960   3.624
10217SOL    HW235499   3.334   7.855   3.545
10218SOL     OW35500   2.835   8.338   3.434
10218SOL    HW135501   2.881   8.254   3.405
10218SOL    HW235502   2.779   8.372   3.359
10219SOL     OW35503   2.853   7.858   3.104
10219SOL    HW135504   2.776   7.892   3.158
10219SOL    HW235505   2.819   7.807   3.025
10220SOL     OW35506   2.903   8.149   2.291
10220SOL    HW135507   2.929   8.145   2.387
10220SOL    HW235508   2.818   8.098   2.277
10221SOL     OW35509   1.938   8.259   2.651
10221SOL    HW135510   2.037   8.247   2.660
10221SOL    HW235511   1.914   8.354   2.672
10222SOL     OW35512   1.992   9.269   3.433
10222SOL    HW135513   1.982   9.254   3.532
10222SOL    HW235514   1.906   9.305   3.397
10223SOL     OW35515   2.727   7.796   2.057
10223SOL    HW135516   2.786   7.859   2.008
10223SOL    HW235517   2.746   7.702   2.028
10224SOL     OW35518   3.224   8.592   2.407
10224SOL    HW135519   3.307   8.563   2.359
10224SOL    HW235520   3.175   8.659   2.351
10225SOL     OW35521   2.870   8.904   2.339
10225SOL    HW135522   2.824   8.976   2.287
10225SOL    HW235523   2.866   8.924   2.437
10226SOL     OW35524   2.213   9.249   2.715
10226SOL    HW135525   2.263   9.163   2.721
10226SOL    HW235526   2.278   9.326   2.712
10227SOL     OW35527   3.657   8.514   2.735
10227SOL    HW135528   3.595   8.499   2.659
10227SOL    HW235529   3.605   8.525   2.820
10228SOL     OW35530   3.089   8.998   3.368
10228SOL    HW135531   3.095   8.921   3.432
10228SOL    HW235532   3.037   8.972   3.288
10229SOL     OW35533   2.183   8.391   2.104
10229SOL    HW135534   2.265   8.430   2.062
10229SOL    HW235535   2.156   8.309   2.055
10230SOL     OW35536   3.320   8.183   2.590
10230SOL    HW135537   3.315   8.118   2.665
10230SOL    HW235538   3.400   8.242   2.603
10231SOL     OW35539   2.323   8.714   3.589
10231SOL    HW135540   2.273   8.715   3.503
10231SOL    HW235541   2.260   8.696   3.665
10232SOL     OW35542   2.973   9.224   2.099
10232SOL    HW135543   2.913   9.162   2.149
10232SOL    HW235544   3.004   9.180   2.014
10233SOL     OW35545   2.064   7.733   3.360
10233SOL    HW135546   1.984   7.793   3.347
10233SOL    HW235547   2.054   7.684   3.446
10234SOL     OW35548   3.494   8.825   1.943
10234SOL    HW135549   3.462   8.919   1.933
10234SOL    HW235550   3.418   8.762   1.931
10235SOL     OW35551   2.326   9.191   2.185
10235SOL    HW135552   2.359   9.230   2.271
10235SOL    HW235553   2.402   9.184   2.120
10236SOL     OW35554   3.262   7.555   2.288
10236SOL    HW135555   3.238   7.518   2.198
10236SOL    HW235556   3.361   7.571   2.292
10237SOL     OW35557   2.111   9.233   3.103
10237SOL    HW135558   2.168   9.168   3.153
10237SOL    HW235559   2.095   9.200   3.010
10238SOL     OW35560   2.802   9.146   2.766
10238SOL    HW135561   2.882   9.089   2.787
10238SOL    HW235562   2.753   9.106   2.689
10239SOL     OW35563   2.244   8.148   2.342
10239SOL    HW135564   2.289   8.058   2.339
10239SOL    HW235565   2.150   8.137   2.375
10240SOL     OW35566   3.409   7.670   3.591
10240SOL    HW135567   3.404   7.707   3.683
10240SOL    HW235568   3.337   7.601   3.579
10241SOL     OW35569   2.476   7.570   1.979
10241SOL    HW135570   2.574   7.548   1.986
10241SOL    HW235571   2.445   7.553   1.886
10242SOL     OW35572   2.643   7.712   3.611
10242SOL    HW135573   2.710   7.651   3.654
10242SOL    HW235574   2.570   7.731   3.676
10243SOL     OW35575   2.750   8.962   3.057
10243SOL    HW135576   2.727   8.937   2.963
10243SOL    HW235577   2.811   8.893   3.096
10244SOL     OW35578   3.213   8.038   3.295
10244SOL    HW135579   3.241   7.995   3.380
10244SOL    HW235580   3.238   8.134   3.296
10245SOL     OW35581   2.784   7.951   2.761
10245SOL    HW135582   2.759   7.942   2.665
10245SOL    HW235583   2.832   7.869   2.792
10246SOL     OW35584   2.401   7.512   2.374
10246SOL    HW135585   2.320   7.513   2.432
10246SOL    HW235586   2.404   7.595   2.319
10247SOL     OW35587   3.296   8.636   1.903
10247SOL    HW135588   3.328   8.560   1.960
10247SOL    HW235589   3.204   8.663   1.933
10248SOL     OW35590   2.159   7.483   2.033
10248SOL    HW135591   2.208   7.567   2.012
10248SOL    HW235592   2.221   7.418   2.078
10249SOL     OW35593   2.797   7.684   2.342
10249SOL    HW135594   2.749   7.725   2.264
10249SOL    HW235595   2.896   7.682   2.323
10250SOL     OW35596   2.938   8.131   3.326
10250SOL    HW135597   2.858   8.070   3.329
10250SOL    HW235598   3.019   8.078   3.302
10251SOL     OW35599   3.089   9.018   2.655
10251SOL    HW135600   3.110   9.092   2.590
10251SOL    HW235601   3.157   9.018   2.728
10252SOL     OW35602   2.894   7.997   1.878
10252SOL    HW135603   2.853   8.079   1.839
10252SOL    HW235604   2.958   8.023   1.951
10253SOL     OW35605   1.940   8.004   3.248
10253SOL    HW135606   2.032   8.003   3.207
10253SOL    HW235607   1.934   8.078   3.315
10254SOL     OW35608   2.423   7.670   3.009
10254SOL    HW135609   2.461   7.586   3.046
10254SOL    HW235610   2.335   7.689   3.053
10255SOL     OW35611   2.728   7.902   2.504
10255SOL    HW135612   2.696   7.974   2.442
10255SOL    HW235613   2.752   7.821   2.451
10256SOL     OW35614   2.879   7.487   2.615
10256SOL    HW135615   2.807   7.492   2.546
10256SOL    HW235616   2.855   7.418   2.684
10257SOL     OW35617   3.291   8.621   2.729
10257SOL    HW135618   3.236   8.537   2.722
10257SOL    HW235619   3.317   8.650   2.637
10258SOL     OW35620   3.328   8.038   2.854
10258SOL    HW135621   3.298   7.943   2.861
10258SOL    HW235622   3.401   8.054   2.920
10259SOL     OW35623   3.719   8.281   2.239
10259SOL    HW135624   3.761   8.217   2.303
10259SOL    HW235625   3.681   8.230   2.161
10260SOL     OW35626   2.350   8.833   2.036
10260SOL    HW135627   2.263   8.818   2.083
10260SOL    HW235628   2.333   8.859   1.941
10261SOL     OW35629   3.526   8.728   2.519
10261SOL    HW135630   3.625   8.736   2.533
10261SOL    HW235631   3.481   8.812   2.550
10262SOL     OW35632   3.252   8.023   1.940
10262SOL    HW135633   3.198   8.002   2.021
10262SOL    HW235634   3.343   7.982   1.949
10263SOL     OW35635   2.389   7.704   2.190
10263SOL    HW135636   2.416   7.645   2.115
10263SOL    HW235637   2.389   7.799   2.159
10264SOL     OW35638   3.616   8.671   3.450
10264SOL    HW135639   3.707   8.632   3.437
10264SOL    HW235640   3.624   8.767   3.474
10265SOL     OW35641   2.926   8.795   3.202
10265SOL    HW135642   2.846   8.772   3.257
10265SOL    HW235643   3.009   8.769   3.251
10266SOL     OW35644   3.454   9.077   3.487
10266SOL    HW135645   3.481   9.111   3.397
10266SOL    HW235646   3.533   9.039   3.533
10267SOL     OW35647   2.973   8.643   2.962
10267SOL    HW135648   2.933   8.687   3.043
10267SOL    HW235649   2.932   8.680   2.879
10268SOL     OW35650   3.500   8.547   2.941
10268SOL    HW135651   3.505   8.628   3.000
10268SOL    HW235652   3.414   8.549   2.890
10269SOL     OW35653   2.777   7.537   3.264
10269SOL    HW135654   2.802   7.517   3.169
10269SOL    HW235655   2.849   7.593   3.306
10270SOL     OW35656   2.842   8.564   3.581
10270SOL    HW135657   2.743   8.570   3.591
10270SOL    HW235658   2.865   8.484   3.525
10271SOL     OW35659   2.567   8.498   2.230
10271SOL    HW135660   2.553   8.505   2.329
10271SOL    HW235661   2.651   8.447   2.212
10272SOL     OW35662   2.272   8.261   3.113
10272SOL    HW135663   2.358   8.273   3.163
10272SOL    HW235664   2.230   8.174   3.140
10273SOL     OW35665   3.136   7.834   3.124
10273SOL    HW135666   3.157   7.908   3.188
10273SOL    HW235667   3.047   7.851   3.081
10274SOL     OW35668   1.926   9.012   3.193
10274SOL    HW135669   1.880   9.094   3.159
10274SOL    HW235670   2.024   9.031   3.202
10275SOL     OW35671   2.428   7.985   2.727
10275SOL    HW135672   2.440   8.051   2.653
10275SOL    HW235673   2.474   8.019   2.810
10276SOL     OW35674   3.114   8.796   2.250
10276SOL    HW135675   3.164   8.873   2.290
10276SOL    HW235676   3.019   8.798   2.282
10277SOL     OW35677   3.134   8.893   3.004
10277SOL    HW135678   3.181   8.906   3.091
10277SOL    HW235679   3.068   8.819   3.013
10278SOL     OW35680   3.444   8.087   2.334
10278SOL    HW135681   3.413   8.148   2.407
10278SOL    HW235682   3.494   8.139   2.265
10279SOL     OW35683   2.216   8.958   3.191
10279SOL    HW135684   2.195   8.914   3.104
10279SOL    HW235685   2.313   8.984   3.194
10280SOL     OW35686   2.264   8.199   3.460
10280SOL    HW135687   2.332   8.254   3.413
10280SOL    HW235688   2.304   8.111   3.487
10281SOL     OW35689   3.449   8.227   3.532
10281SOL    HW135690   3.357   8.265   3.527
10281SOL    HW235691   3.509   8.274   3.467
10282SOL     OW35692   2.875   7.553   3.632
10282SOL    HW135693   2.881   7.638   3.580
10282SOL    HW235694   2.907   7.477   3.575
10283SOL     OW35695   2.366   7.498   3.602
10283SOL    HW135696   2.324   7.441   3.532
10283SOL    HW235697   2.300   7.567   3.634
10284SOL     OW35698   2.435   8.318   2.891
10284SOL    HW135699   2.479   8.407   2.882
10284SOL    HW235700   2.372   8.318   2.968
10285SOL     OW35701   3.222   8.310   2.907
10285SOL    HW135702   3.147   8.310   2.841
10285SOL    HW235703   3.259   8.218   2.916
10286SOL     OW35704   3.071   7.973   2.137
10286SOL    HW135705   3.084   7.889   2.191
10286SOL    HW235706   3.042   8.047   2.197
10287SOL     OW35707   2.169   7.661   3.093
10287SOL    HW135708   2.146   7.698   3.183
10287SOL    HW235709   2.139   7.566   3.087
10288SOL     OW35710   1.899   8.758   3.144
10288SOL    HW135711   1.952   8.709   3.212
10288SOL    HW235712   1.921   8.856   3.149
10289SOL     OW35713   2.594   8.082   2.926
10289SOL    HW135714   2.653   8.056   2.850
10289SOL    HW235715   2.566   8.178   2.915
10290SOL     OW35716   3.590   8.383   3.716
10290SOL    HW135717   3.544   8.376   3.627
10290SOL    HW235718   3.528   8.427   3.782
10291SOL     OW35719   2.169   7.511   2.480
10291SOL    HW135720   2.158   7.605   2.513
10291SOL    HW235721   2.164   7.448   2.557
10292SOL     OW35722   3.484   7.815   2.236
10292SOL    HW135723   3.486   7.739   2.300
10292SOL    HW235724   3.436   7.892   2.276
10293SOL     OW35725   2.885   8.214   2.828
10293SOL    HW135726   2.900   8.235   2.924
10293SOL    HW235727   2.855   8.119   2.819
10294SOL     OW35728   2.842   9.021   3.562
10294SOL    HW135729   2.822   9.065   3.474
10294SOL    HW235730   2.881   8.930   3.546
10295SOL     OW35731   3.721   8.966   3.467
10295SOL    HW135732   3.735   8.993   3.372
10295SOL    HW235733   3.804   8.988   3.520
10296SOL     OW35734   2.212   8.346   3.666
10296SOL    HW135735   2.288   8.390   3.714
10296SOL    HW235736   2.247   8.299   3.584
10297SOL     OW35737   3.402   7.722   1.987
10297SOL    HW135738   3.341   7.647   2.010
10297SOL    HW235739   3.424   7.774   2.070
10298SOL     OW35740   3.165   8.286   1.904
10298SOL    HW135741   3.199   8.193   1.919
10298SOL    HW235742   3.183   8.313   1.809
10299SOL     OW35743   2.930   8.781   2.711
10299SOL    HW135744   2.937   8.697   2.656
10299SOL    HW235745   2.992   8.850   2.675
10300SOL     OW35746   2.181   8.258   2.811
10300SOL    HW135747   2.274   8.294   2.816
10300SOL    HW235748   2.175   8.173   2.863
10301SOL     OW35749   2.201   7.957   2.868
10301SOL    HW135750   2.149   7.874   2.851
10301SOL    HW235751   2.278   7.962   2.804
10302SOL     OW35752   3.000   7.828   3.540
10302SOL    HW135753   2.955   7.891   3.604
10302SOL    HW235754   3.093   7.859   3.523
10303SOL     OW35755   3.022   7.655   3.339
10303SOL    HW135756   3.022   7.719   3.416
10303SOL    HW235757   3.050   7.703   3.256
10304SOL     OW35758   1.870   8.774   2.062
10304SOL    HW135759   1.777   8.795   2.031
10304SOL    HW235760   1.880   8.675   2.075
10305SOL     OW35761   1.950   9.249   2.789
10305SOL    HW135762   1.908   9.163   2.762
10305SOL    HW235763   2.044   9.252   2.755
10306SOL     OW35764   2.366   9.016   2.772
10306SOL    HW135765   2.432   9.090   2.781
10306SOL    HW235766   2.410   8.937   2.730
10307SOL     OW35767   2.864   8.244   3.100
10307SOL    HW135768   2.905   8.212   3.186
10307SOL    HW235769   2.768   8.217   3.097
10308SOL     OW35770   1.902   7.992   2.976
10308SOL    HW135771   1.987   7.959   2.935
10308SOL    HW235772   1.915   8.007   3.074
10309SOL     OW35773   2.051   7.968   3.584
10309SOL    HW135774   2.110   7.928   3.514
10309SOL    HW235775   1.993   8.039   3.543
10310SOL     OW35776   3.231   8.398   3.522
10310SOL    HW135777   3.270   8.487   3.542
10310SOL    HW235778   3.241   8.378   3.425
10311SOL     OW35779   2.677   8.020   2.187
10311SOL    HW135780   2.684   7.931   2.141
10311SOL    HW235781   2.583   8.054   2.179
10312SOL     OW35782   3.519   8.052   3.068
10312SOL    HW135783   3.481   7.983   3.130
10312SOL    HW235784   3.601   8.016   3.024
10313SOL     OW35785   2.114   9.012   3.606
10313SOL    HW135786   2.084   9.069   3.682
10313SOL    HW235787   2.107   8.915   3.632
10314SOL     OW35788   2.533   7.912   3.131
10314SOL    HW135789   2.499   7.823   3.101
10314SOL    HW235790   2.559   7.966   3.051
10315SOL     OW35791   2.792   9.126   3.327
10315SOL    HW135792   2.768   9.108   3.232
10315SOL    HW235793   2.822   9.220   3.337
10316SOL     OW35794   2.335   7.948   2.053
10316SOL    HW135795   2.396   8.028   2.057
10316SOL    HW235796   2.240   7.979   2.060
10317SOL     OW35797   2.021   8.585   3.328
10317SOL    HW135798   2.043   8.524   3.404
10317SOL    HW235799   2.031   8.536   3.242
10318SOL     OW35800   3.209   8.507   3.096
10318SOL    HW135801   3.233   8.444   3.022
10318SOL    HW235802   3.119   8.547   3.078
10319SOL     OW35803   3.164   8.303   2.171
10319SOL    HW135804   3.078   8.272   2.213
10319SOL    HW235805   3.160   8.289   2.072
10320SOL     OW35806   3.621   9.195   3.016
10320SOL    HW135807   3.682   9.225   2.943
10320SOL    HW235808   3.583   9.106   2.994
10321SOL     OW35809   3.114   9.179   2.990
10321SOL    HW135810   3.198   9.184   2.936
10321SOL    HW235811   3.091   9.083   3.008
10322SOL     OW35812   1.945   8.706   2.884
10322SOL    HW135813   1.940   8.705   2.984
10322SOL    HW235814   1.862   8.665   2.846
10323SOL     OW35815   2.550   9.110   3.578
10323SOL    HW135816   2.494   9.191   3.587
10323SOL    HW235817   2.602   9.114   3.492
10324SOL     OW35818   3.588   7.583   2.385
10324SOL    HW135819   3.661   7.566   2.318
10324SOL    HW235820   3.557   7.496   2.423
10325SOL     OW35821   3.250   9.021   2.339
10325SOL    HW135822   3.317   9.033   2.265
10325SOL    HW235823   3.210   9.110   2.362
10326SOL     OW35824   1.992   9.242   3.713
10326SOL    HW135825   1.951   9.168   3.766
10326SOL    HW235826   2.056   9.293   3.771
10327SOL     OW35827   3.142   8.375   2.534
10327SOL    HW135828   3.202   8.294   2.536
10327SOL    HW235829   3.182   8.444   2.474
10328SOL     OW35830   2.692   8.721   3.284
10328SOL    HW135831   2.687   8.754   3.379
10328SOL    HW235832   2.606   8.740   3.238
10329SOL     OW35833   2.534   9.064   2.016
10329SOL    HW135834   2.543   9.074   1.917
10329SOL    HW235835   2.494   8.975   2.037
10330SOL     OW35836   3.512   9.168   3.256
10330SOL    HW135837   3.565   9.178   3.172
10330SOL    HW235838   3.485   9.258   3.290
10331SOL     OW35839   3.703   7.623   2.825
10331SOL    HW135840   3.742   7.538   2.789
10331SOL    HW235841   3.605   7.625   2.806
10332SOL     OW35842   2.125   7.774   2.582
10332SOL    HW135843   2.046   7.825   2.548
10332SOL    HW235844   2.116   7.759   2.680
10333SOL     OW35845   3.056   9.060   1.893
10333SOL    HW135846   3.062   8.967   1.930
10333SOL    HW235847   2.997   9.060   1.813
10334SOL     OW35848   2.684   8.450   3.234
10334SOL    HW135849   2.724   8.449   3.142
10334SOL    HW235850   2.694   8.542   3.274
10335SOL     OW35851   2.778   8.358   2.153
10335SOL    HW135852   2.841   8.396   2.085
10335SOL    HW235853   2.818   8.275   2.192
10336SOL     OW35854   3.366   9.055   1.906
10336SOL    HW135855   3.274   9.092   1.913
10336SOL    HW235856   3.404   9.075   1.816
10337SOL     OW35857   2.234   8.736   3.352
10337SOL    HW135858   2.221   8.829   3.318
10337SOL    HW235859   2.150   8.684   3.339
10338SOL     OW35860   3.476   8.740   3.151
10338SOL    HW135861   3.536   8.743   3.231
10338SOL    HW235862   3.401   8.804   3.164
10339SOL     OW35863   2.901   8.546   2.558
10339SOL    HW135864   2.831   8.499   2.612
10339SOL    HW235865   2.960   8.478   2.515
10340SOL     OW35866   2.876   7.684   2.833
10340SOL    HW135867   2.868   7.648   2.740
10340SOL    HW235868   2.874   7.608   2.898
10341SOL     OW35869   3.571   7.833   3.243
10341SOL    HW135870   3.644   7.902   3.247
10341SOL    HW235871   3.599   7.758   3.184
10342SOL     OW35872   2.117   8.796   2.152
10342SOL    HW135873   2.021   8.797   2.125
10342SOL    HW235874   2.129   8.849   2.236
10343SOL     OW35875   1.967   8.461   3.588
10343SOL    HW135876   1.890   8.428   3.642
10343SOL    HW235877   2.052   8.431   3.630
10344SOL     OW35878   2.534   7.651   3.351
10344SOL    HW135879   2.624   7.635   3.311
10344SOL    HW235880   2.542   7.656   3.450
10345SOL     OW35881   1.937   7.793   1.895
10345SOL    HW135882   1.845   7.765   1.866
10345SOL    HW235883   1.968   7.870   1.839
10346SOL     OW35884   3.302   8.304   3.260
10346SOL    HW135885   3.245   8.356   3.197
10346SOL    HW235886   3.398   8.316   3.236
10347SOL     OW35887   1.934   7.614   2.180
10347SOL    HW135888   1.917   7.697   2.126
10347SOL    HW235889   2.024   7.577   2.158
10348SOL     OW35890   3.045   8.783   1.981
10348SOL    HW135891   2.946   8.772   1.983
10348SOL    HW235892   3.079   8.798   2.074
10349SOL     OW35893   2.475   8.290   3.293
10349SOL    HW135894   2.531   8.371   3.276
10349SOL    HW235895   2.534   8.210   3.296
10350SOL     OW35896   3.355   9.215   2.821
10350SOL    HW135897   3.388   9.279   2.752
10350SOL    HW235898   3.421   9.209   2.896
10351SOL     OW35899   2.578   8.013   3.570
10351SOL    HW135900   2.597   8.078   3.644
10351SOL    HW235901   2.638   7.933   3.579
10352SOL     OW35902   3.312   8.668   3.495
10352SOL    HW135903   3.303   8.658   3.594
10352SOL    HW235904   3.408   8.661   3.469
10353SOL     OW35905   2.252   9.189   3.422
10353SOL    HW135906   2.161   9.230   3.420
10353SOL    HW235907   2.245   9.095   3.454
10354SOL     OW35908   3.536   8.331   3.116
10354SOL    HW135909   3.509   8.242   3.079
10354SOL    HW235910   3.537   8.399   3.043
10355SOL     OW35911   3.087   7.773   2.311
10355SOL    HW135912   3.152   7.699   2.300
10355SOL    HW235913   3.107   7.823   2.395
10356SOL     OW35914   2.456   8.193   2.514
10356SOL    HW135915   2.506   8.278   2.495
10356SOL    HW235916   2.368   8.195   2.466
10357SOL     OW35917   3.639   7.790   3.504
10357SOL    HW135918   3.622   7.821   3.410
10357SOL    HW235919   3.555   7.753   3.542
10358SOL     OW35920   3.592   8.382   3.379
10358SOL    HW135921   3.630   8.473   3.394
10358SOL    HW235922   3.584   8.365   3.280
10359SOL     OW35923   2.721   8.822   1.878
10359SOL    HW135924   2.675   8.837   1.966
10359SOL    HW235925   2.765   8.907   1.848
10360SOL     OW35926   2.523   9.238   2.815
10360SOL    HW135927   2.477   9.326   2.802
10360SOL    HW235928   2.622   9.250   2.808
10361SOL     OW35929   2.721   8.404   2.723
10361SOL    HW135930   2.775   8.335   2.771
10361SOL    HW235931   2.689   8.473   2.789
10362SOL     OW35932   2.945   8.432   1.949
10362SOL    HW135933   2.922   8.485   1.867
10362SOL    HW235934   3.026   8.376   1.930
10363SOL     OW35935   3.723   9.017   2.713
10363SOL    HW135936   3.652   9.005   2.643
10363SOL    HW235937   3.724   8.938   2.773
10364SOL     OW35938   2.083   8.762   3.706
10364SOL    HW135939   2.018   8.689   3.685
10364SOL    HW235940   2.087   8.776   3.804
10365SOL     OW35941   1.941   8.688   2.515
10365SOL    HW135942   1.940   8.641   2.603
10365SOL    HW235943   2.023   8.660   2.464
10366SOL     OW35944   2.534   8.839   3.486
10366SOL    HW135945   2.456   8.789   3.524
10366SOL    HW235946   2.531   8.934   3.517
10367SOL     OW35947   3.686   7.640   3.089
10367SOL    HW135948   3.682   7.550   3.133
10367SOL    HW235949   3.689   7.629   2.990
10368SOL     OW35950   2.290   7.872   2.382
10368SOL    HW135951   2.320   7.800   2.320
10368SOL    HW235952   2.251   7.832   2.465
10369SOL     OW35953   3.567   8.935   2.966
10369SOL    HW135954   3.474   8.910   2.939
10369SOL    HW235955   3.593   8.885   3.048
10370SOL     OW35956   2.179   7.995   3.142
10370SOL    HW135957   2.217   7.936   3.214
10370SOL    HW235958   2.219   7.969   3.054
10371SOL     OW35959   2.674   9.034   2.549
10371SOL    HW135960   2.706   9.044   2.455
10371SOL    HW235961   2.595   8.972   2.551
10372SOL     OW35962   3.286   7.662   2.974
10372SOL    HW135963   3.338   7.597   3.029
10372SOL    HW235964   3.237   7.725   3.035
10373SOL     OW35965   2.863   7.482   3.016
10373SOL    HW135966   2.800   7.410   2.985
10373SOL    HW235967   2.956   7.446   3.016
10374SOL     OW35968   2.632   8.778   2.163
10374SOL    HW135969   2.586   8.691   2.180
10374SOL    HW235970   2.723   8.775   2.204
10375SOL     OW35971   2.480   9.015   3.146
10375SOL    HW135972   2.475   9.097   3.203
10375SOL    HW235973   2.569   9.012   3.101
10376SOL     OW35974   3.214   7.500   2.030
10376SOL    HW135975   3.249   7.459   1.946
10376SOL    HW235976   3.124   7.462   2.050
10377SOL     OW35977   3.162   7.901   2.553
10377SOL    HW135978   3.103   7.981   2.557
10377SOL    HW235979   3.177   7.866   2.646
10378SOL     OW35980   3.455   7.669   2.744
10378SOL    HW135981   3.371   7.668   2.798
10378SOL    HW235982   3.457   7.752   2.688
10379SOL     OW35983   1.901   8.525   2.162
10379SOL    HW135984   2.000   8.514   2.153
10379SOL    HW235985   1.861   8.439   2.194
10380SOL     OW35986   2.737   9.094   2.199
10380SOL    HW135987   2.660   9.059   2.145
10380SOL    HW235988   2.705   9.165   2.261
10381SOL     OW35989   2.092   8.076   3.837
10381SOL    HW135990   1.999   8.074   3.874
10381SOL    HW235991   2.093   8.037   3.745
10382SOL     OW35992   2.087   7.723   4.720
10382SOL    HW135993   2.122   7.706   4.812
10382SOL    HW235994   1.999   7.678   4.708
10383SOL     OW35995   1.881   7.816   4.371
10383SOL    HW135996   1.799   7.859   4.410
10383SOL    HW235997   1.853   7.743   4.308
10384SOL     OW35998   2.431   8.723   4.889
10384SOL    HW135999   2.338   8.716   4.852
10384SOL    HW236000   2.442   8.812   4.933
10385SOL     OW36001   3.417   8.959   4.427
10385SOL    HW136002   3.360   8.943   4.508
10385SOL    HW236003   3.358   8.969   4.347
10386SOL     OW36004   2.997   8.151   4.441
10386SOL    HW136005   3.054   8.229   4.416
10386SOL    HW236006   2.937   8.177   4.517
10387SOL     OW36007   3.617   8.055   3.955
10387SOL    HW136008   3.605   8.042   3.856
10387SOL    HW236009   3.587   7.974   4.004
10388SOL     OW36010   2.630   8.592   4.747
10388SOL    HW136011   2.552   8.609   4.807
10388SOL    HW236012   2.664   8.679   4.711
10389SOL     OW36013   2.712   8.246   5.547
10389SOL    HW136014   2.708   8.322   5.612
10389SOL    HW236015   2.734   8.282   5.456
10390SOL     OW36016   2.547   8.460   4.389
10390SOL    HW136017   2.616   8.444   4.459
10390SOL    HW236018   2.474   8.517   4.427
10391SOL     OW36019   2.548   8.609   5.527
10391SOL    HW136020   2.608   8.688   5.541
10391SOL    HW236021   2.462   8.640   5.486
10392SOL     OW36022   2.197   8.883   4.785
10392SOL    HW136023   2.119   8.852   4.732
10392SOL    HW236024   2.255   8.941   4.728
10393SOL     OW36025   3.322   8.953   5.063
10393SOL    HW136026   3.346   9.047   5.089
10393SOL    HW236027   3.306   8.899   5.145
10394SOL     OW36028   2.300   7.840   5.223
10394SOL    HW136029   2.382   7.784   5.232
10394SOL    HW236030   2.219   7.782   5.227
10395SOL     OW36031   3.465   7.895   4.461
10395SOL    HW136032   3.391   7.941   4.411
10395SOL    HW236033   3.516   7.963   4.514
10396SOL     OW36034   2.093   9.161   4.207
10396SOL    HW136035   2.127   9.238   4.261
10396SOL    HW236036   2.137   9.161   4.117
10397SOL     OW36037   2.989   8.789   5.414
10397SOL    HW136038   3.036   8.789   5.502
10397SOL    HW236039   2.941   8.702   5.403
10398SOL     OW36040   2.092   8.882   4.262
10398SOL    HW136041   2.066   8.978   4.262
10398SOL    HW236042   2.021   8.828   4.307
10399SOL     OW36043   2.102   8.539   4.610
10399SOL    HW136044   2.116   8.455   4.662
10399SOL    HW236045   2.047   8.603   4.665
10400SOL     OW36046   3.456   7.562   5.204
10400SOL    HW136047   3.438   7.629   5.132
10400SOL    HW236048   3.453   7.608   5.293
10401SOL     OW36049   1.984   8.091   4.287
10401SOL    HW136050   1.939   8.003   4.304
10401SOL    HW236051   1.983   8.145   4.371
10402SOL     OW36052   3.704   9.215   4.083
10402SOL    HW136053   3.758   9.186   4.163
10402SOL    HW236054   3.734   9.305   4.054
10403SOL     OW36055   1.889   9.044   3.841
10403SOL    HW136056   1.870   8.948   3.862
10403SOL    HW236057   1.856   9.102   3.916
10404SOL     OW36058   3.551   8.370   4.336
10404SOL    HW136059   3.646   8.341   4.344
10404SOL    HW236060   3.543   8.435   4.261
10405SOL     OW36061   3.503   8.556   4.156
10405SOL    HW136062   3.589   8.558   4.104
10405SOL    HW236063   3.517   8.603   4.244
10406SOL     OW36064   2.475   8.813   4.450
10406SOL    HW136065   2.426   8.726   4.459
10406SOL    HW236066   2.452   8.856   4.363
10407SOL     OW36067   3.155   8.676   5.147
10407SOL    HW136068   3.192   8.603   5.089
10407SOL    HW236069   3.207   8.681   5.232
10408SOL     OW36070   2.059   8.424   4.988
10408SOL    HW136071   2.148   8.379   4.974
10408SOL    HW236072   1.986   8.359   4.969
10409SOL     OW36073   3.387   8.447   3.914
10409SOL    HW136074   3.324   8.371   3.927
10409SOL    HW236075   3.435   8.465   4.000
10410SOL     OW36076   3.049   9.240   5.340
10410SOL    HW136077   3.073   9.300   5.264
10410SOL    HW236078   3.056   9.145   5.310
10411SOL     OW36079   2.179   7.699   5.525
10411SOL    HW136080   2.250   7.770   5.531
10411SOL    HW236081   2.091   7.738   5.553
10412SOL     OW36082   3.328   8.865   4.677
10412SOL    HW136083   3.269   8.871   4.757
10412SOL    HW236084   3.313   8.777   4.631
10413SOL     OW36085   3.529   9.162   4.296
10413SOL    HW136086   3.488   9.139   4.208
10413SOL    HW236087   3.511   9.088   4.361
10414SOL     OW36088   2.460   8.177   3.994
10414SOL    HW136089   2.484   8.246   3.926
10414SOL    HW236090   2.382   8.210   4.048
10415SOL     OW36091   3.143   7.793   4.668
10415SOL    HW136092   3.057   7.743   4.655
10415SOL    HW236093   3.205   7.739   4.724
10416SOL     OW36094   3.438   9.110   4.031
10416SOL    HW136095   3.527   9.156   4.034
10416SOL    HW236096   3.417   9.086   3.936
10417SOL     OW36097   2.669   8.053   5.189
10417SOL    HW136098   2.622   8.050   5.278
10417SOL    HW236099   2.618   7.998   5.123
10418SOL     OW36100   3.256   7.917   5.398
10418SOL    HW136101   3.236   7.960   5.486
10418SOL    HW236102   3.334   7.855   5.407
10419SOL     OW36103   2.835   8.338   5.296
10419SOL    HW136104   2.881   8.254   5.267
10419SOL    HW236105   2.779   8.372   5.221
10420SOL     OW36106   2.853   7.858   4.966
10420SOL    HW136107   2.776   7.892   5.020
10420SOL    HW236108   2.819   7.807   4.887
10421SOL     OW36109   2.903   8.149   4.153
10421SOL    HW136110   2.929   8.145   4.249
10421SOL    HW236111   2.818   8.098   4.139
10422SOL     OW36112   1.938   8.259   4.513
10422SOL    HW136113   2.037   8.247   4.522
10422SOL    HW236114   1.914   8.354   4.534
10423SOL     OW36115   1.992   9.269   5.295
10423SOL    HW136116   1.982   9.254   5.394
10423SOL    HW236117   1.906   9.305   5.259
10424SOL     OW36118   2.727   7.796   3.919
10424SOL    HW136119   2.786   7.859   3.870
10424SOL    HW236120   2.746   7.702   3.890
10425SOL     OW36121   3.581   8.033   5.555
10425SOL    HW136122   3.555   8.122   5.519
10425SOL    HW236123   3.579   7.965   5.482
10426SOL     OW36124   3.224   8.592   4.269
10426SOL    HW136125   3.307   8.563   4.221
10426SOL    HW236126   3.175   8.659   4.213
10427SOL     OW36127   2.412   7.644   4.609
10427SOL    HW136128   2.407   7.639   4.709
10427SOL    HW236129   2.414   7.740   4.580
10428SOL     OW36130   2.870   8.904   4.201
10428SOL    HW136131   2.824   8.976   4.149
10428SOL    HW236132   2.866   8.924   4.299
10429SOL     OW36133   2.213   9.249   4.577
10429SOL    HW136134   2.263   9.163   4.583
10429SOL    HW236135   2.278   9.326   4.574
10430SOL     OW36136   3.657   8.514   4.597
10430SOL    HW136137   3.595   8.499   4.521
10430SOL    HW236138   3.605   8.525   4.682
10431SOL     OW36139   3.089   8.998   5.230
10431SOL    HW136140   3.095   8.921   5.294
10431SOL    HW236141   3.037   8.972   5.150
10432SOL     OW36142   2.183   8.391   3.966
10432SOL    HW136143   2.265   8.430   3.924
10432SOL    HW236144   2.156   8.309   3.917
10433SOL     OW36145   3.320   8.183   4.452
10433SOL    HW136146   3.315   8.118   4.527
10433SOL    HW236147   3.400   8.242   4.465
10434SOL     OW36148   2.323   8.714   5.451
10434SOL    HW136149   2.273   8.715   5.365
10434SOL    HW236150   2.260   8.696   5.527
10435SOL     OW36151   2.973   9.224   3.961
10435SOL    HW136152   2.913   9.162   4.011
10435SOL    HW236153   3.004   9.180   3.876
10436SOL     OW36154   2.064   7.733   5.222
10436SOL    HW136155   1.984   7.793   5.209
10436SOL    HW236156   2.054   7.684   5.308
10437SOL     OW36157   3.494   8.825   3.805
10437SOL    HW136158   3.462   8.919   3.795
10437SOL    HW236159   3.418   8.762   3.793
10438SOL     OW36160   2.326   9.191   4.047
10438SOL    HW136161   2.359   9.230   4.133
10438SOL    HW236162   2.402   9.184   3.982
10439SOL     OW36163   3.262   7.555   4.150
10439SOL    HW136164   3.238   7.518   4.060
10439SOL    HW236165   3.361   7.571   4.154
10440SOL     OW36166   2.111   9.233   4.965
10440SOL    HW136167   2.168   9.168   5.015
10440SOL    HW236168   2.095   9.200   4.872
10441SOL     OW36169   2.802   9.146   4.628
10441SOL    HW136170   2.882   9.089   4.649
10441SOL    HW236171   2.753   9.106   4.551
10442SOL     OW36172   2.244   8.148   4.204
10442SOL    HW136173   2.289   8.058   4.201
10442SOL    HW236174   2.150   8.137   4.237
10443SOL     OW36175   3.409   7.670   5.453
10443SOL    HW136176   3.404   7.707   5.545
10443SOL    HW236177   3.337   7.601   5.441
10444SOL     OW36178   2.476   7.570   3.841
10444SOL    HW136179   2.574   7.548   3.848
10444SOL    HW236180   2.445   7.553   3.748
10445SOL     OW36181   2.643   7.712   5.473
10445SOL    HW136182   2.710   7.651   5.516
10445SOL    HW236183   2.570   7.731   5.538
10446SOL     OW36184   2.750   8.962   4.919
10446SOL    HW136185   2.727   8.937   4.825
10446SOL    HW236186   2.811   8.893   4.958
10447SOL     OW36187   3.213   8.038   5.157
10447SOL    HW136188   3.241   7.995   5.242
10447SOL    HW236189   3.238   8.134   5.158
10448SOL     OW36190   2.665   8.850   4.648
10448SOL    HW136191   2.755   8.864   4.606
10448SOL    HW236192   2.594   8.852   4.577
10449SOL     OW36193   2.784   7.951   4.623
10449SOL    HW136194   2.759   7.942   4.527
10449SOL    HW236195   2.832   7.869   4.654
10450SOL     OW36196   2.401   7.512   4.236
10450SOL    HW136197   2.320   7.513   4.294
10450SOL    HW236198   2.404   7.595   4.181
10451SOL     OW36199   3.296   8.636   3.765
10451SOL    HW136200   3.328   8.560   3.822
10451SOL    HW236201   3.204   8.663   3.795
10452SOL     OW36202   2.159   7.483   3.895
10452SOL    HW136203   2.208   7.567   3.874
10452SOL    HW236204   2.221   7.418   3.940
10453SOL     OW36205   2.797   7.684   4.204
10453SOL    HW136206   2.749   7.725   4.126
10453SOL    HW236207   2.896   7.682   4.185
10454SOL     OW36208   2.938   8.131   5.188
10454SOL    HW136209   2.858   8.070   5.191
10454SOL    HW236210   3.019   8.078   5.164
10455SOL     OW36211   3.089   9.018   4.517
10455SOL    HW136212   3.110   9.092   4.452
10455SOL    HW236213   3.157   9.018   4.590
10456SOL     OW36214   2.321   8.600   4.465
10456SOL    HW136215   2.250   8.573   4.530
10456SOL    HW236216   2.295   8.572   4.372
10457SOL     OW36217   3.133   9.245   4.315
10457SOL    HW136218   3.177   9.309   4.251
10457SOL    HW236219   3.083   9.297   4.385
10458SOL     OW36220   2.894   7.997   3.740
10458SOL    HW136221   2.853   8.079   3.701
10458SOL    HW236222   2.958   8.023   3.813
10459SOL     OW36223   2.423   7.670   4.871
10459SOL    HW136224   2.461   7.586   4.908
10459SOL    HW236225   2.335   7.689   4.915
10460SOL     OW36226   2.728   7.902   4.366
10460SOL    HW136227   2.696   7.974   4.304
10460SOL    HW236228   2.752   7.821   4.313
10461SOL     OW36229   2.879   7.487   4.477
10461SOL    HW136230   2.807   7.492   4.408
10461SOL    HW236231   2.855   7.418   4.546
10462SOL     OW36232   3.291   8.621   4.591
10462SOL    HW136233   3.236   8.537   4.584
10462SOL    HW236234   3.317   8.650   4.499
10463SOL     OW36235   3.328   8.038   4.716
10463SOL    HW136236   3.298   7.943   4.723
10463SOL    HW236237   3.401   8.054   4.782
10464SOL     OW36238   3.719   8.281   4.101
10464SOL    HW136239   3.761   8.217   4.165
10464SOL    HW236240   3.681   8.230   4.023
10465SOL     OW36241   3.526   8.728   4.381
10465SOL    HW136242   3.625   8.736   4.395
10465SOL    HW236243   3.481   8.812   4.412
10466SOL     OW36244   3.252   8.023   3.802
10466SOL    HW136245   3.198   8.002   3.883
10466SOL    HW236246   3.343   7.982   3.811
10467SOL     OW36247   2.389   7.704   4.052
10467SOL    HW136248   2.416   7.645   3.977
10467SOL    HW236249   2.389   7.799   4.021
10468SOL     OW36250   3.616   8.671   5.312
10468SOL    HW136251   3.707   8.632   5.299
10468SOL    HW236252   3.624   8.767   5.336
10469SOL     OW36253   2.926   8.795   5.064
10469SOL    HW136254   2.846   8.772   5.119
10469SOL    HW236255   3.009   8.769   5.113
10470SOL     OW36256   3.454   9.077   5.349
10470SOL    HW136257   3.481   9.111   5.259
10470SOL    HW236258   3.533   9.039   5.395
10471SOL     OW36259   2.973   8.643   4.824
10471SOL    HW136260   2.933   8.687   4.905
10471SOL    HW236261   2.932   8.680   4.741
10472SOL     OW36262   3.500   8.547   4.803
10472SOL    HW136263   3.505   8.628   4.862
10472SOL    HW236264   3.414   8.549   4.752
10473SOL     OW36265   2.777   7.537   5.126
10473SOL    HW136266   2.802   7.517   5.031
10473SOL    HW236267   2.849   7.593   5.168
10474SOL     OW36268   2.842   8.564   5.443
10474SOL    HW136269   2.743   8.570   5.453
10474SOL    HW236270   2.865   8.484   5.387
10475SOL     OW36271   2.272   8.261   4.975
10475SOL    HW136272   2.358   8.273   5.025
10475SOL    HW236273   2.230   8.174   5.002
10476SOL     OW36274   1.926   9.012   5.055
10476SOL    HW136275   1.880   9.094   5.021
10476SOL    HW236276   2.024   9.031   5.064
10477SOL     OW36277   2.229   8.548   4.225
10477SOL    HW136278   2.222   8.631   4.169
10477SOL    HW236279   2.233   8.468   4.165
10478SOL     OW36280   2.428   7.985   4.589
10478SOL    HW136281   2.440   8.051   4.515
10478SOL    HW236282   2.474   8.019   4.672
10479SOL     OW36283   3.114   8.796   4.112
10479SOL    HW136284   3.164   8.873   4.152
10479SOL    HW236285   3.019   8.798   4.144
10480SOL     OW36286   3.134   8.893   4.866
10480SOL    HW136287   3.181   8.906   4.953
10480SOL    HW236288   3.068   8.819   4.875
10481SOL     OW36289   3.444   8.087   4.196
10481SOL    HW136290   3.413   8.148   4.269
10481SOL    HW236291   3.494   8.139   4.127
10482SOL     OW36292   2.216   8.958   5.053
10482SOL    HW136293   2.195   8.914   4.966
10482SOL    HW236294   2.313   8.984   5.056
10483SOL     OW36295   2.264   8.199   5.322
10483SOL    HW136296   2.332   8.254   5.275
10483SOL    HW236297   2.304   8.111   5.349
10484SOL     OW36298   3.449   8.227   5.394
10484SOL    HW136299   3.357   8.265   5.389
10484SOL    HW236300   3.509   8.274   5.329
10485SOL     OW36301   2.875   7.553   5.494
10485SOL    HW136302   2.881   7.638   5.442
10485SOL    HW236303   2.907   7.477   5.437
10486SOL     OW36304   2.366   7.498   5.464
10486SOL    HW136305   2.324   7.441   5.394
10486SOL    HW236306   2.300   7.567   5.496
10487SOL     OW36307   2.435   8.318   4.753
10487SOL    HW136308   2.479   8.407   4.744
10487SOL    HW236309   2.372   8.318   4.830
10488SOL     OW36310   3.222   8.310   4.769
10488SOL    HW136311   3.147   8.310   4.703
10488SOL    HW236312   3.259   8.218   4.778
10489SOL     OW36313   3.071   7.973   3.999
10489SOL    HW136314   3.084   7.889   4.053
10489SOL    HW236315   3.042   8.047   4.059
10490SOL     OW36316   2.169   7.661   4.955
10490SOL    HW136317   2.146   7.698   5.045
10490SOL    HW236318   2.139   7.566   4.949
10491SOL     OW36319   1.899   8.758   5.006
10491SOL    HW136320   1.952   8.709   5.074
10491SOL    HW236321   1.921   8.856   5.011
10492SOL     OW36322   2.594   8.082   4.788
10492SOL    HW136323   2.653   8.056   4.712
10492SOL    HW236324   2.566   8.178   4.777
10493SOL     OW36325   3.590   8.383   5.578
10493SOL    HW136326   3.544   8.376   5.489
10493SOL    HW236327   3.528   8.427   5.644
10494SOL     OW36328   2.169   7.511   4.342
10494SOL    HW136329   2.158   7.605   4.375
10494SOL    HW236330   2.164   7.448   4.419
10495SOL     OW36331   3.484   7.815   4.098
10495SOL    HW136332   3.486   7.739   4.162
10495SOL    HW236333   3.436   7.892   4.138
10496SOL     OW36334   2.885   8.214   4.690
10496SOL    HW136335   2.900   8.235   4.786
10496SOL    HW236336   2.855   8.119   4.681
10497SOL     OW36337   2.842   9.021   5.424
10497SOL    HW136338   2.822   9.065   5.336
10497SOL    HW236339   2.881   8.930   5.408
10498SOL     OW36340   2.212   8.346   5.528
10498SOL    HW136341   2.288   8.390   5.576
10498SOL    HW236342   2.247   8.299   5.446
10499SOL     OW36343   3.402   7.722   3.849
10499SOL    HW136344   3.341   7.647   3.872
10499SOL    HW236345   3.424   7.774   3.932
10500SOL     OW36346   3.165   8.286   3.766
10500SOL    HW136347   3.199   8.193   3.781
10500SOL    HW236348   3.183   8.313   3.671
10501SOL     OW36349   2.930   8.781   4.573
10501SOL    HW136350   2.937   8.697   4.518
10501SOL    HW236351   2.992   8.850   4.537
10502SOL     OW36352   2.181   8.258   4.673
10502SOL    HW136353   2.274   8.294   4.678
10502SOL    HW236354   2.175   8.173   4.725
10503SOL     OW36355   2.201   7.957   4.730
10503SOL    HW136356   2.149   7.874   4.713
10503SOL    HW236357   2.278   7.962   4.666
10504SOL     OW36358   3.000   7.828   5.402
10504SOL    HW136359   2.955   7.891   5.466
10504SOL    HW236360   3.093   7.859   5.385
10505SOL     OW36361   3.022   7.655   5.201
10505SOL    HW136362   3.022   7.719   5.278
10505SOL    HW236363   3.050   7.703   5.118
10506SOL     OW36364   1.870   8.774   3.924
10506SOL    HW136365   1.777   8.795   3.893
10506SOL    HW236366   1.880   8.675   3.937
10507SOL     OW36367   1.950   9.249   4.651
10507SOL    HW136368   1.908   9.163   4.624
10507SOL    HW236369   2.044   9.252   4.617
10508SOL     OW36370   2.366   9.016   4.634
10508SOL    HW136371   2.432   9.090   4.643
10508SOL    HW236372   2.410   8.937   4.592
10509SOL     OW36373   2.864   8.244   4.962
10509SOL    HW136374   2.905   8.212   5.048
10509SOL    HW236375   2.768   8.217   4.959
10510SOL     OW36376   1.902   7.992   4.838
10510SOL    HW136377   1.987   7.959   4.797
10510SOL    HW236378   1.915   8.007   4.936
10511SOL     OW36379   3.231   8.398   5.384
10511SOL    HW136380   3.270   8.487   5.404
10511SOL    HW236381   3.241   8.378   5.287
10512SOL     OW36382   2.677   8.020   4.049
10512SOL    HW136383   2.684   7.931   4.003
10512SOL    HW236384   2.583   8.054   4.041
10513SOL     OW36385   3.519   8.052   4.930
10513SOL    HW136386   3.481   7.983   4.992
10513SOL    HW236387   3.601   8.016   4.886
10514SOL     OW36388   2.114   9.012   5.468
10514SOL    HW136389   2.084   9.069   5.544
10514SOL    HW236390   2.107   8.915   5.494
10515SOL     OW36391   2.533   7.912   4.993
10515SOL    HW136392   2.499   7.823   4.963
10515SOL    HW236393   2.559   7.966   4.913
10516SOL     OW36394   2.792   9.126   5.189
10516SOL    HW136395   2.768   9.108   5.094
10516SOL    HW236396   2.822   9.220   5.199
10517SOL     OW36397   2.335   7.948   3.915
10517SOL    HW136398   2.396   8.028   3.919
10517SOL    HW236399   2.240   7.979   3.922
10518SOL     OW36400   2.021   8.585   5.190
10518SOL    HW136401   2.043   8.524   5.266
10518SOL    HW236402   2.031   8.536   5.104
10519SOL     OW36403   3.209   8.507   4.958
10519SOL    HW136404   3.233   8.444   4.884
10519SOL    HW236405   3.119   8.547   4.940
10520SOL     OW36406   3.164   8.303   4.033
10520SOL    HW136407   3.078   8.272   4.075
10520SOL    HW236408   3.160   8.289   3.934
10521SOL     OW36409   3.621   9.195   4.878
10521SOL    HW136410   3.682   9.225   4.805
10521SOL    HW236411   3.583   9.106   4.856
10522SOL     OW36412   3.114   9.179   4.852
10522SOL    HW136413   3.198   9.184   4.798
10522SOL    HW236414   3.091   9.083   4.870
10523SOL     OW36415   1.945   8.706   4.746
10523SOL    HW136416   1.940   8.705   4.846
10523SOL    HW236417   1.862   8.665   4.708
10524SOL     OW36418   2.550   9.110   5.440
10524SOL    HW136419   2.494   9.191   5.449
10524SOL    HW236420   2.602   9.114   5.354
10525SOL     OW36421   3.250   9.021   4.201
10525SOL    HW136422   3.317   9.033   4.127
10525SOL    HW236423   3.210   9.110   4.224
10526SOL     OW36424   1.992   9.242   5.575
10526SOL    HW136425   1.951   9.168   5.628
10526SOL    HW236426   2.056   9.293   5.633
10527SOL     OW36427   3.142   8.375   4.396
10527SOL    HW136428   3.202   8.294   4.398
10527SOL    HW236429   3.182   8.444   4.336
10528SOL     OW36430   2.692   8.721   5.146
10528SOL    HW136431   2.687   8.754   5.241
10528SOL    HW236432   2.606   8.740   5.100
10529SOL     OW36433   3.512   9.168   5.118
10529SOL    HW136434   3.565   9.178   5.034
10529SOL    HW236435   3.485   9.258   5.152
10530SOL     OW36436   3.703   7.623   4.687
10530SOL    HW136437   3.742   7.538   4.651
10530SOL    HW236438   3.605   7.625   4.668
10531SOL     OW36439   2.125   7.774   4.444
10531SOL    HW136440   2.046   7.825   4.410
10531SOL    HW236441   2.116   7.759   4.542
10532SOL     OW36442   3.056   9.060   3.755
10532SOL    HW136443   3.062   8.967   3.792
10532SOL    HW236444   2.997   9.060   3.675
10533SOL     OW36445   2.684   8.450   5.096
10533SOL    HW136446   2.724   8.449   5.004
10533SOL    HW236447   2.694   8.542   5.136
10534SOL     OW36448   2.778   8.358   4.015
10534SOL    HW136449   2.841   8.396   3.947
10534SOL    HW236450   2.818   8.275   4.054
10535SOL     OW36451   3.366   9.055   3.768
10535SOL    HW136452   3.274   9.092   3.775
10535SOL    HW236453   3.404   9.075   3.678
10536SOL     OW36454   2.234   8.736   5.214
10536SOL    HW136455   2.221   8.829   5.180
10536SOL    HW236456   2.150   8.684   5.201
10537SOL     OW36457   3.476   8.740   5.013
10537SOL    HW136458   3.536   8.743   5.093
10537SOL    HW236459   3.401   8.804   5.026
10538SOL     OW36460   2.901   8.546   4.420
10538SOL    HW136461   2.831   8.499   4.474
10538SOL    HW236462   2.960   8.478   4.377
10539SOL     OW36463   2.876   7.684   4.695
10539SOL    HW136464   2.868   7.648   4.602
10539SOL    HW236465   2.874   7.608   4.760
10540SOL     OW36466   2.452   8.935   4.215
10540SOL    HW136467   2.494   8.877   4.145
10540SOL    HW236468   2.408   9.014   4.171
10541SOL     OW36469   3.571   7.833   5.105
10541SOL    HW136470   3.644   7.902   5.109
10541SOL    HW236471   3.599   7.758   5.046
10542SOL     OW36472   2.117   8.796   4.014
10542SOL    HW136473   2.021   8.797   3.987
10542SOL    HW236474   2.129   8.849   4.098
10543SOL     OW36475   1.967   8.461   5.450
10543SOL    HW136476   1.890   8.428   5.504
10543SOL    HW236477   2.052   8.431   5.492
10544SOL     OW36478   2.534   7.651   5.213
10544SOL    HW136479   2.624   7.635   5.173
10544SOL    HW236480   2.542   7.656   5.312
10545SOL     OW36481   1.937   7.793   3.757
10545SOL    HW136482   1.845   7.765   3.728
10545SOL    HW236483   1.968   7.870   3.701
10546SOL     OW36484   3.302   8.304   5.122
10546SOL    HW136485   3.245   8.356   5.059
10546SOL    HW236486   3.398   8.316   5.098
10547SOL     OW36487   1.934   7.614   4.042
10547SOL    HW136488   1.917   7.697   3.988
10547SOL    HW236489   2.024   7.577   4.020
10548SOL     OW36490   3.045   8.783   3.843
10548SOL    HW136491   2.946   8.772   3.845
10548SOL    HW236492   3.079   8.798   3.936
10549SOL     OW36493   2.475   8.290   5.155
10549SOL    HW136494   2.531   8.371   5.138
10549SOL    HW236495   2.534   8.210   5.158
10550SOL     OW36496   3.355   9.215   4.683
10550SOL    HW136497   3.388   9.279   4.614
10550SOL    HW236498   3.421   9.209   4.758
10551SOL     OW36499   2.578   8.013   5.432
10551SOL    HW136500   2.597   8.078   5.506
10551SOL    HW236501   2.638   7.933   5.441
10552SOL     OW36502   3.312   8.668   5.357
10552SOL    HW136503   3.303   8.658   5.456
10552SOL    HW236504   3.408   8.661   5.331
10553SOL     OW36505   3.536   8.331   4.978
10553SOL    HW136506   3.509   8.242   4.941
10553SOL    HW236507   3.537   8.399   4.905
10554SOL     OW36508   3.087   7.773   4.173
10554SOL    HW136509   3.152   7.699   4.162
10554SOL    HW236510   3.107   7.823   4.257
10555SOL     OW36511   2.456   8.193   4.376
10555SOL    HW136512   2.506   8.278   4.357
10555SOL    HW236513   2.368   8.195   4.328
10556SOL     OW36514   3.639   7.790   5.366
10556SOL    HW136515   3.622   7.821   5.272
10556SOL    HW236516   3.555   7.753   5.404
10557SOL     OW36517   3.592   8.382   5.241
10557SOL    HW136518   3.630   8.473   5.256
10557SOL    HW236519   3.584   8.365   5.142
10558SOL     OW36520   2.721   8.822   3.740
10558SOL    HW136521   2.675   8.837   3.828
10558SOL    HW236522   2.765   8.907   3.710
10559SOL     OW36523   2.523   9.238   4.677
10559SOL    HW136524   2.477   9.326   4.664
10559SOL    HW236525   2.622   9.250   4.670
10560SOL     OW36526   2.721   8.404   4.585
10560SOL    HW136527   2.775   8.335   4.633
10560SOL    HW236528   2.689   8.473   4.651
10561SOL     OW36529   2.945   8.432   3.811
10561SOL    HW136530   2.922   8.485   3.729
10561SOL    HW236531   3.026   8.376   3.792
10562SOL     OW36532   3.723   9.017   4.575
10562SOL    HW136533   3.652   9.005   4.505
10562SOL    HW236534   3.724   8.938   4.635
10563SOL     OW36535   2.083   8.762   5.568
10563SOL    HW136536   2.018   8.689   5.547
10563SOL    HW236537   2.087   8.776   5.666
10564SOL     OW36538   1.941   8.688   4.377
10564SOL    HW136539   1.940   8.641   4.465
10564SOL    HW236540   2.023   8.660   4.326
10565SOL     OW36541   2.534   8.839   5.348
10565SOL    HW136542   2.456   8.789   5.386
10565SOL    HW236543   2.531   8.934   5.379
10566SOL     OW36544   3.686   7.640   4.951
10566SOL    HW136545   3.682   7.550   4.995
10566SOL    HW236546   3.689   7.629   4.852
10567SOL     OW36547   2.290   7.872   4.244
10567SOL    HW136548   2.320   7.800   4.182
10567SOL    HW236549   2.251   7.832   4.327
10568SOL     OW36550   3.567   8.935   4.828
10568SOL    HW136551   3.474   8.910   4.801
10568SOL    HW236552   3.593   8.885   4.910
10569SOL     OW36553   2.179   7.995   5.004
10569SOL    HW136554   2.217   7.936   5.076
10569SOL    HW236555   2.219   7.969   4.916
10570SOL     OW36556   2.674   9.034   4.411
10570SOL    HW136557   2.706   9.044   4.317
10570SOL    HW236558   2.595   8.972   4.413
10571SOL     OW36559   3.286   7.662   4.836
10571SOL    HW136560   3.338   7.597   4.891
10571SOL    HW236561   3.237   7.725   4.897
10572SOL     OW36562   2.863   7.482   4.878
10572SOL    HW136563   2.800   7.410   4.847
10572SOL    HW236564   2.956   7.446   4.878
10573SOL     OW36565   2.480   9.015   5.008
10573SOL    HW136566   2.475   9.097   5.065
10573SOL    HW236567   2.569   9.012   4.963
10574SOL     OW36568   3.214   7.500   3.892
10574SOL    HW136569   3.249   7.459   3.808
10574SOL    HW236570   3.124   7.462   3.912
10575SOL     OW36571   3.162   7.901   4.415
10575SOL    HW136572   3.103   7.981   4.419
10575SOL    HW236573   3.177   7.866   4.508
10576SOL     OW36574   3.455   7.669   4.606
10576SOL    HW136575   3.371   7.668   4.660
10576SOL    HW236576   3.457   7.752   4.550
10577SOL     OW36577   1.901   8.525   4.024
10577SOL    HW136578   2.000   8.514   4.015
10577SOL    HW236579   1.861   8.439   4.056
10578SOL     OW36580   2.087   7.723   6.582
10578SOL    HW136581   2.122   7.706   6.674
10578SOL    HW236582   1.999   7.678   6.570
10579SOL     OW36583   1.881   7.816   6.233
10579SOL    HW136584   1.799   7.859   6.272
10579SOL    HW236585   1.853   7.743   6.170
10580SOL     OW36586   2.431   8.723   6.751
10580SOL    HW136587   2.338   8.716   6.714
10580SOL    HW236588   2.442   8.812   6.795
10581SOL     OW36589   3.417   8.959   6.289
10581SOL    HW136590   3.360   8.943   6.370
10581SOL    HW236591   3.358   8.969   6.209
10582SOL     OW36592   2.997   8.151   6.303
10582SOL    HW136593   3.054   8.229   6.278
10582SOL    HW236594   2.937   8.177   6.379
10583SOL     OW36595   3.617   8.055   5.817
10583SOL    HW136596   3.605   8.042   5.718
10583SOL    HW236597   3.587   7.974   5.866
10584SOL     OW36598   2.712   8.246   7.409
10584SOL    HW136599   2.708   8.322   7.474
10584SOL    HW236600   2.734   8.282   7.318
10585SOL     OW36601   2.548   8.609   7.389
10585SOL    HW136602   2.608   8.688   7.403
10585SOL    HW236603   2.462   8.640   7.348
10586SOL     OW36604   2.197   8.883   6.647
10586SOL    HW136605   2.119   8.852   6.594
10586SOL    HW236606   2.255   8.941   6.590
10587SOL     OW36607   3.322   8.953   6.925
10587SOL    HW136608   3.346   9.047   6.951
10587SOL    HW236609   3.306   8.899   7.007
10588SOL     OW36610   2.300   7.840   7.085
10588SOL    HW136611   2.382   7.784   7.094
10588SOL    HW236612   2.219   7.782   7.089
10589SOL     OW36613   3.465   7.895   6.323
10589SOL    HW136614   3.391   7.941   6.273
10589SOL    HW236615   3.516   7.963   6.376
10590SOL     OW36616   2.093   9.161   6.069
10590SOL    HW136617   2.127   9.238   6.123
10590SOL    HW236618   2.137   9.161   5.979
10591SOL     OW36619   2.989   8.789   7.276
10591SOL    HW136620   3.036   8.789   7.364
10591SOL    HW236621   2.941   8.702   7.265
10592SOL     OW36622   2.092   8.882   6.124
10592SOL    HW136623   2.066   8.978   6.124
10592SOL    HW236624   2.021   8.828   6.169
10593SOL     OW36625   2.102   8.539   6.472
10593SOL    HW136626   2.116   8.455   6.524
10593SOL    HW236627   2.047   8.603   6.527
10594SOL     OW36628   2.482   9.234   7.025
10594SOL    HW136629   2.390   9.217   7.060
10594SOL    HW236630   2.510   9.326   7.051
10595SOL     OW36631   2.468   8.412   5.709
10595SOL    HW136632   2.475   8.496   5.655
10595SOL    HW236633   2.514   8.425   5.797
10596SOL     OW36634   3.456   7.562   7.066
10596SOL    HW136635   3.438   7.629   6.994
10596SOL    HW236636   3.453   7.608   7.155
10597SOL     OW36637   1.984   8.091   6.149
10597SOL    HW136638   1.939   8.003   6.166
10597SOL    HW236639   1.983   8.145   6.233
10598SOL     OW36640   3.704   9.215   5.945
10598SOL    HW136641   3.758   9.186   6.025
10598SOL    HW236642   3.734   9.305   5.916
10599SOL     OW36643   1.889   9.044   5.703
10599SOL    HW136644   1.870   8.948   5.724
10599SOL    HW236645   1.856   9.102   5.778
10600SOL     OW36646   3.551   8.370   6.198
10600SOL    HW136647   3.646   8.341   6.206
10600SOL    HW236648   3.543   8.435   6.123
10601SOL     OW36649   3.503   8.556   6.018
10601SOL    HW136650   3.589   8.558   5.966
10601SOL    HW236651   3.517   8.603   6.106
10602SOL     OW36652   1.975   8.185   7.183
10602SOL    HW136653   2.063   8.172   7.228
10602SOL    HW236654   1.962   8.282   7.161
10603SOL     OW36655   3.155   8.676   7.009
10603SOL    HW136656   3.192   8.603   6.951
10603SOL    HW236657   3.207   8.681   7.094
10604SOL     OW36658   2.671   7.452   6.088
10604SOL    HW136659   2.711   7.543   6.079
10604SOL    HW236660   2.571   7.460   6.094
10605SOL     OW36661   2.059   8.424   6.850
10605SOL    HW136662   2.148   8.379   6.836
10605SOL    HW236663   1.986   8.359   6.831
10606SOL     OW36664   3.387   8.447   5.776
10606SOL    HW136665   3.324   8.371   5.789
10606SOL    HW236666   3.435   8.465   5.862
10607SOL     OW36667   3.049   9.240   7.202
10607SOL    HW136668   3.073   9.300   7.126
10607SOL    HW236669   3.056   9.145   7.172
10608SOL     OW36670   2.179   7.699   7.387
10608SOL    HW136671   2.250   7.770   7.393
10608SOL    HW236672   2.091   7.738   7.415
10609SOL     OW36673   3.328   8.865   6.539
10609SOL    HW136674   3.269   8.871   6.619
10609SOL    HW236675   3.313   8.777   6.493
10610SOL     OW36676   3.529   9.162   6.158
10610SOL    HW136677   3.488   9.139   6.070
10610SOL    HW236678   3.511   9.088   6.223
10611SOL     OW36679   2.460   8.177   5.856
10611SOL    HW136680   2.484   8.246   5.788
10611SOL    HW236681   2.382   8.210   5.910
10612SOL     OW36682   3.143   7.793   6.530
10612SOL    HW136683   3.057   7.743   6.517
10612SOL    HW236684   3.205   7.739   6.586
10613SOL     OW36685   3.438   9.110   5.893
10613SOL    HW136686   3.527   9.156   5.896
10613SOL    HW236687   3.417   9.086   5.798
10614SOL     OW36688   2.669   8.053   7.051
10614SOL    HW136689   2.622   8.050   7.140
10614SOL    HW236690   2.618   7.998   6.985
10615SOL     OW36691   2.835   8.338   7.158
10615SOL    HW136692   2.881   8.254   7.129
10615SOL    HW236693   2.779   8.372   7.083
10616SOL     OW36694   2.853   7.858   6.828
10616SOL    HW136695   2.776   7.892   6.882
10616SOL    HW236696   2.819   7.807   6.749
10617SOL     OW36697   2.903   8.149   6.015
10617SOL    HW136698   2.929   8.145   6.111
10617SOL    HW236699   2.818   8.098   6.001
10618SOL     OW36700   1.938   8.259   6.375
10618SOL    HW136701   2.037   8.247   6.384
10618SOL    HW236702   1.914   8.354   6.396
10619SOL     OW36703   1.992   9.269   7.157
10619SOL    HW136704   1.982   9.254   7.256
10619SOL    HW236705   1.906   9.305   7.121
10620SOL     OW36706   2.727   7.796   5.781
10620SOL    HW136707   2.786   7.859   5.732
10620SOL    HW236708   2.746   7.702   5.752
10621SOL     OW36709   3.224   8.592   6.131
10621SOL    HW136710   3.307   8.563   6.083
10621SOL    HW236711   3.175   8.659   6.075
10622SOL     OW36712   2.412   7.644   6.471
10622SOL    HW136713   2.407   7.639   6.571
10622SOL    HW236714   2.414   7.740   6.442
10623SOL     OW36715   2.870   8.904   6.063
10623SOL    HW136716   2.824   8.976   6.011
10623SOL    HW236717   2.866   8.924   6.161
10624SOL     OW36718   2.213   9.249   6.439
10624SOL    HW136719   2.263   9.163   6.445
10624SOL    HW236720   2.278   9.326   6.436
10625SOL     OW36721   3.089   8.998   7.092
10625SOL    HW136722   3.095   8.921   7.156
10625SOL    HW236723   3.037   8.972   7.012
10626SOL     OW36724   2.183   8.391   5.828
10626SOL    HW136725   2.265   8.430   5.786
10626SOL    HW236726   2.156   8.309   5.779
10627SOL     OW36727   3.320   8.183   6.314
10627SOL    HW136728   3.315   8.118   6.389
10627SOL    HW236729   3.400   8.242   6.327
10628SOL     OW36730   2.323   8.714   7.313
10628SOL    HW136731   2.273   8.715   7.227
10628SOL    HW236732   2.260   8.696   7.389
10629SOL     OW36733   2.973   9.224   5.823
10629SOL    HW136734   2.913   9.162   5.873
10629SOL    HW236735   3.004   9.180   5.738
10630SOL     OW36736   2.064   7.733   7.084
10630SOL    HW136737   1.984   7.793   7.071
10630SOL    HW236738   2.054   7.684   7.170
10631SOL     OW36739   3.494   8.825   5.667
10631SOL    HW136740   3.462   8.919   5.657
10631SOL    HW236741   3.418   8.762   5.655
10632SOL     OW36742   2.326   9.191   5.909
10632SOL    HW136743   2.359   9.230   5.995
10632SOL    HW236744   2.402   9.184   5.844
10633SOL     OW36745   3.262   7.555   6.012
10633SOL    HW136746   3.238   7.518   5.922
10633SOL    HW236747   3.361   7.571   6.016
10634SOL     OW36748   2.111   9.233   6.827
10634SOL    HW136749   2.168   9.168   6.877
10634SOL    HW236750   2.095   9.200   6.734
10635SOL     OW36751   2.802   9.146   6.490
10635SOL    HW136752   2.882   9.089   6.511
10635SOL    HW236753   2.753   9.106   6.413
10636SOL     OW36754   2.244   8.148   6.066
10636SOL    HW136755   2.289   8.058   6.063
10636SOL    HW236756   2.150   8.137   6.099
10637SOL     OW36757   3.409   7.670   7.315
10637SOL    HW136758   3.404   7.707   7.407
10637SOL    HW236759   3.337   7.601   7.303
10638SOL     OW36760   2.476   7.570   5.703
10638SOL    HW136761   2.574   7.548   5.710
10638SOL    HW236762   2.445   7.553   5.610
10639SOL     OW36763   2.643   7.712   7.335
10639SOL    HW136764   2.710   7.651   7.378
10639SOL    HW236765   2.570   7.731   7.400
10640SOL     OW36766   2.750   8.962   6.781
10640SOL    HW136767   2.727   8.937   6.687
10640SOL    HW236768   2.811   8.893   6.820
10641SOL     OW36769   3.213   8.038   7.019
10641SOL    HW136770   3.241   7.995   7.104
10641SOL    HW236771   3.238   8.134   7.020
10642SOL     OW36772   2.784   7.951   6.485
10642SOL    HW136773   2.759   7.942   6.389
10642SOL    HW236774   2.832   7.869   6.516
10643SOL     OW36775   2.401   7.512   6.098
10643SOL    HW136776   2.320   7.513   6.156
10643SOL    HW236777   2.404   7.595   6.043
10644SOL     OW36778   3.296   8.636   5.627
10644SOL    HW136779   3.328   8.560   5.684
10644SOL    HW236780   3.204   8.663   5.657
10645SOL     OW36781   2.159   7.483   5.757
10645SOL    HW136782   2.208   7.567   5.736
10645SOL    HW236783   2.221   7.418   5.802
10646SOL     OW36784   2.797   7.684   6.066
10646SOL    HW136785   2.749   7.725   5.988
10646SOL    HW236786   2.896   7.682   6.047
10647SOL     OW36787   2.938   8.131   7.050
10647SOL    HW136788   2.858   8.070   7.053
10647SOL    HW236789   3.019   8.078   7.026
10648SOL     OW36790   3.089   9.018   6.379
10648SOL    HW136791   3.110   9.092   6.314
10648SOL    HW236792   3.157   9.018   6.452
10649SOL     OW36793   3.133   9.245   6.177
10649SOL    HW136794   3.177   9.309   6.113
10649SOL    HW236795   3.083   9.297   6.247
10650SOL     OW36796   2.894   7.997   5.602
10650SOL    HW136797   2.853   8.079   5.563
10650SOL    HW236798   2.958   8.023   5.675
10651SOL     OW36799   1.940   8.004   6.972
10651SOL    HW136800   2.032   8.003   6.931
10651SOL    HW236801   1.934   8.078   7.039
10652SOL     OW36802   2.423   7.670   6.733
10652SOL    HW136803   2.461   7.586   6.770
10652SOL    HW236804   2.335   7.689   6.777
10653SOL     OW36805   2.728   7.902   6.228
10653SOL    HW136806   2.696   7.974   6.166
10653SOL    HW236807   2.752   7.821   6.175
10654SOL     OW36808   2.879   7.487   6.339
10654SOL    HW136809   2.807   7.492   6.270
10654SOL    HW236810   2.855   7.418   6.408
10655SOL     OW36811   3.291   8.621   6.453
10655SOL    HW136812   3.236   8.537   6.446
10655SOL    HW236813   3.317   8.650   6.361
10656SOL     OW36814   3.328   8.038   6.578
10656SOL    HW136815   3.298   7.943   6.585
10656SOL    HW236816   3.401   8.054   6.644
10657SOL     OW36817   3.719   8.281   5.963
10657SOL    HW136818   3.761   8.217   6.027
10657SOL    HW236819   3.681   8.230   5.885
10658SOL     OW36820   2.350   8.833   5.760
10658SOL    HW136821   2.263   8.818   5.807
10658SOL    HW236822   2.333   8.859   5.665
10659SOL     OW36823   3.526   8.728   6.243
10659SOL    HW136824   3.625   8.736   6.257
10659SOL    HW236825   3.481   8.812   6.274
10660SOL     OW36826   3.252   8.023   5.664
10660SOL    HW136827   3.198   8.002   5.745
10660SOL    HW236828   3.343   7.982   5.673
10661SOL     OW36829   2.389   7.704   5.914
10661SOL    HW136830   2.416   7.645   5.839
10661SOL    HW236831   2.389   7.799   5.883
10662SOL     OW36832   3.616   8.671   7.174
10662SOL    HW136833   3.707   8.632   7.161
10662SOL    HW236834   3.624   8.767   7.198
10663SOL     OW36835   2.926   8.795   6.926
10663SOL    HW136836   2.846   8.772   6.981
10663SOL    HW236837   3.009   8.769   6.975
10664SOL     OW36838   3.454   9.077   7.211
10664SOL    HW136839   3.481   9.111   7.121
10664SOL    HW236840   3.533   9.039   7.257
10665SOL     OW36841   2.973   8.643   6.686
10665SOL    HW136842   2.933   8.687   6.767
10665SOL    HW236843   2.932   8.680   6.603
10666SOL     OW36844   3.500   8.547   6.665
10666SOL    HW136845   3.505   8.628   6.724
10666SOL    HW236846   3.414   8.549   6.614
10667SOL     OW36847   2.777   7.537   6.988
10667SOL    HW136848   2.802   7.517   6.893
10667SOL    HW236849   2.849   7.593   7.030
10668SOL     OW36850   2.842   8.564   7.305
10668SOL    HW136851   2.743   8.570   7.315
10668SOL    HW236852   2.865   8.484   7.249
10669SOL     OW36853   2.272   8.261   6.837
10669SOL    HW136854   2.358   8.273   6.887
10669SOL    HW236855   2.230   8.174   6.864
10670SOL     OW36856   3.136   7.834   6.848
10670SOL    HW136857   3.157   7.908   6.912
10670SOL    HW236858   3.047   7.851   6.805
10671SOL     OW36859   1.926   9.012   6.917
10671SOL    HW136860   1.880   9.094   6.883
10671SOL    HW236861   2.024   9.031   6.926
10672SOL     OW36862   2.229   8.548   6.087
10672SOL    HW136863   2.222   8.631   6.031
10672SOL    HW236864   2.233   8.468   6.027
10673SOL     OW36865   2.428   7.985   6.451
10673SOL    HW136866   2.440   8.051   6.377
10673SOL    HW236867   2.474   8.019   6.534
10674SOL     OW36868   3.114   8.796   5.974
10674SOL    HW136869   3.164   8.873   6.014
10674SOL    HW236870   3.019   8.798   6.006
10675SOL     OW36871   3.134   8.893   6.728
10675SOL    HW136872   3.181   8.906   6.815
10675SOL    HW236873   3.068   8.819   6.737
10676SOL     OW36874   3.444   8.087   6.058
10676SOL    HW136875   3.413   8.148   6.131
10676SOL    HW236876   3.494   8.139   5.989
10677SOL     OW36877   2.216   8.958   6.915
10677SOL    HW136878   2.195   8.914   6.828
10677SOL    HW236879   2.313   8.984   6.918
10678SOL     OW36880   2.264   8.199   7.184
10678SOL    HW136881   2.332   8.254   7.137
10678SOL    HW236882   2.304   8.111   7.211
10679SOL     OW36883   3.449   8.227   7.256
10679SOL    HW136884   3.357   8.265   7.251
10679SOL    HW236885   3.509   8.274   7.191
10680SOL     OW36886   2.875   7.553   7.356
10680SOL    HW136887   2.881   7.638   7.304
10680SOL    HW236888   2.907   7.477   7.299
10681SOL     OW36889   2.366   7.498   7.326
10681SOL    HW136890   2.324   7.441   7.256
10681SOL    HW236891   2.300   7.567   7.358
10682SOL     OW36892   2.435   8.318   6.615
10682SOL    HW136893   2.479   8.407   6.606
10682SOL    HW236894   2.372   8.318   6.692
10683SOL     OW36895   3.222   8.310   6.631
10683SOL    HW136896   3.147   8.310   6.565
10683SOL    HW236897   3.259   8.218   6.640
10684SOL     OW36898   3.071   7.973   5.861
10684SOL    HW136899   3.084   7.889   5.915
10684SOL    HW236900   3.042   8.047   5.921
10685SOL     OW36901   2.169   7.661   6.817
10685SOL    HW136902   2.146   7.698   6.907
10685SOL    HW236903   2.139   7.566   6.811
10686SOL     OW36904   1.899   8.758   6.868
10686SOL    HW136905   1.952   8.709   6.936
10686SOL    HW236906   1.921   8.856   6.873
10687SOL     OW36907   2.594   8.082   6.650
10687SOL    HW136908   2.653   8.056   6.574
10687SOL    HW236909   2.566   8.178   6.639
10688SOL     OW36910   3.590   8.383   7.440
10688SOL    HW136911   3.544   8.376   7.351
10688SOL    HW236912   3.528   8.427   7.506
10689SOL     OW36913   2.169   7.511   6.204
10689SOL    HW136914   2.158   7.605   6.237
10689SOL    HW236915   2.164   7.448   6.281
10690SOL     OW36916   3.484   7.815   5.960
10690SOL    HW136917   3.486   7.739   6.024
10690SOL    HW236918   3.436   7.892   6.000
10691SOL     OW36919   2.885   8.214   6.552
10691SOL    HW136920   2.900   8.235   6.648
10691SOL    HW236921   2.855   8.119   6.543
10692SOL     OW36922   2.842   9.021   7.286
10692SOL    HW136923   2.822   9.065   7.198
10692SOL    HW236924   2.881   8.930   7.270
10693SOL     OW36925   3.721   8.966   7.191
10693SOL    HW136926   3.735   8.993   7.096
10693SOL    HW236927   3.804   8.988   7.244
10694SOL     OW36928   2.212   8.346   7.390
10694SOL    HW136929   2.288   8.390   7.438
10694SOL    HW236930   2.247   8.299   7.308
10695SOL     OW36931   3.402   7.722   5.711
10695SOL    HW136932   3.341   7.647   5.734
10695SOL    HW236933   3.424   7.774   5.794
10696SOL     OW36934   3.165   8.286   5.628
10696SOL    HW136935   3.199   8.193   5.643
10696SOL    HW236936   3.183   8.313   5.533
10697SOL     OW36937   2.930   8.781   6.435
10697SOL    HW136938   2.937   8.697   6.380
10697SOL    HW236939   2.992   8.850   6.399
10698SOL     OW36940   2.181   8.258   6.535
10698SOL    HW136941   2.274   8.294   6.540
10698SOL    HW236942   2.175   8.173   6.587
10699SOL     OW36943   2.201   7.957   6.592
10699SOL    HW136944   2.149   7.874   6.575
10699SOL    HW236945   2.278   7.962   6.528
10700SOL     OW36946   3.000   7.828   7.264
10700SOL    HW136947   2.955   7.891   7.328
10700SOL    HW236948   3.093   7.859   7.247
10701SOL     OW36949   3.022   7.655   7.063
10701SOL    HW136950   3.022   7.719   7.140
10701SOL    HW236951   3.050   7.703   6.980
10702SOL     OW36952   1.870   8.774   5.786
10702SOL    HW136953   1.777   8.795   5.755
10702SOL    HW236954   1.880   8.675   5.799
10703SOL     OW36955   1.950   9.249   6.513
10703SOL    HW136956   1.908   9.163   6.486
10703SOL    HW236957   2.044   9.252   6.479
10704SOL     OW36958   2.366   9.016   6.496
10704SOL    HW136959   2.432   9.090   6.505
10704SOL    HW236960   2.410   8.937   6.454
10705SOL     OW36961   2.864   8.244   6.824
10705SOL    HW136962   2.905   8.212   6.910
10705SOL    HW236963   2.768   8.217   6.821
10706SOL     OW36964   1.902   7.992   6.700
10706SOL    HW136965   1.987   7.959   6.659
10706SOL    HW236966   1.915   8.007   6.798
10707SOL     OW36967   2.051   7.968   7.308
10707SOL    HW136968   2.110   7.928   7.238
10707SOL    HW236969   1.993   8.039   7.267
10708SOL     OW36970   3.231   8.398   7.246
10708SOL    HW136971   3.270   8.487   7.266
10708SOL    HW236972   3.241   8.378   7.149
10709SOL     OW36973   2.677   8.020   5.911
10709SOL    HW136974   2.684   7.931   5.865
10709SOL    HW236975   2.583   8.054   5.903
10710SOL     OW36976   3.519   8.052   6.792
10710SOL    HW136977   3.481   7.983   6.854
10710SOL    HW236978   3.601   8.016   6.748
10711SOL     OW36979   2.114   9.012   7.330
10711SOL    HW136980   2.084   9.069   7.406
10711SOL    HW236981   2.107   8.915   7.356
10712SOL     OW36982   2.533   7.912   6.855
10712SOL    HW136983   2.499   7.823   6.825
10712SOL    HW236984   2.559   7.966   6.775
10713SOL     OW36985   2.792   9.126   7.051
10713SOL    HW136986   2.768   9.108   6.956
10713SOL    HW236987   2.822   9.220   7.061
10714SOL     OW36988   2.335   7.948   5.777
10714SOL    HW136989   2.396   8.028   5.781
10714SOL    HW236990   2.240   7.979   5.784
10715SOL     OW36991   2.021   8.585   7.052
10715SOL    HW136992   2.043   8.524   7.128
10715SOL    HW236993   2.031   8.536   6.966
10716SOL     OW36994   3.209   8.507   6.820
10716SOL    HW136995   3.233   8.444   6.746
10716SOL    HW236996   3.119   8.547   6.802
10717SOL     OW36997   3.164   8.303   5.895
10717SOL    HW136998   3.078   8.272   5.937
10717SOL    HW236999   3.160   8.289   5.796
10718SOL     OW37000   3.621   9.195   6.740
10718SOL    HW137001   3.682   9.225   6.667
10718SOL    HW237002   3.583   9.106   6.718
10719SOL     OW37003   1.945   8.706   6.608
10719SOL    HW137004   1.940   8.705   6.708
10719SOL    HW237005   1.862   8.665   6.570
10720SOL     OW37006   2.550   9.110   7.302
10720SOL    HW137007   2.494   9.191   7.311
10720SOL    HW237008   2.602   9.114   7.216
10721SOL     OW37009   3.588   7.583   6.109
10721SOL    HW137010   3.661   7.566   6.042
10721SOL    HW237011   3.557   7.496   6.147
10722SOL     OW37012   3.250   9.021   6.063
10722SOL    HW137013   3.317   9.033   5.989
10722SOL    HW237014   3.210   9.110   6.086
10723SOL     OW37015   1.992   9.242   7.437
10723SOL    HW137016   1.951   9.168   7.490
10723SOL    HW237017   2.056   9.293   7.495
10724SOL     OW37018   3.142   8.375   6.258
10724SOL    HW137019   3.202   8.294   6.260
10724SOL    HW237020   3.182   8.444   6.198
10725SOL     OW37021   2.692   8.721   7.008
10725SOL    HW137022   2.687   8.754   7.103
10725SOL    HW237023   2.606   8.740   6.962
10726SOL     OW37024   2.534   9.064   5.740
10726SOL    HW137025   2.543   9.074   5.641
10726SOL    HW237026   2.494   8.975   5.761
10727SOL     OW37027   3.512   9.168   6.980
10727SOL    HW137028   3.565   9.178   6.896
10727SOL    HW237029   3.485   9.258   7.014
10728SOL     OW37030   2.125   7.774   6.306
10728SOL    HW137031   2.046   7.825   6.272
10728SOL    HW237032   2.116   7.759   6.404
10729SOL     OW37033   3.056   9.060   5.617
10729SOL    HW137034   3.062   8.967   5.654
10729SOL    HW237035   2.997   9.060   5.537
10730SOL     OW37036   2.684   8.450   6.958
10730SOL    HW137037   2.724   8.449   6.866
10730SOL    HW237038   2.694   8.542   6.998
10731SOL     OW37039   2.778   8.358   5.877
10731SOL    HW137040   2.841   8.396   5.809
10731SOL    HW237041   2.818   8.275   5.916
10732SOL     OW37042   3.366   9.055   5.630
10732SOL    HW137043   3.274   9.092   5.637
10732SOL    HW237044   3.404   9.075   5.540
10733SOL     OW37045   2.234   8.736   7.076
10733SOL    HW137046   2.221   8.829   7.042
10733SOL    HW237047   2.150   8.684   7.063
10734SOL     OW37048   3.476   8.740   6.875
10734SOL    HW137049   3.536   8.743   6.955
10734SOL    HW237050   3.401   8.804   6.888
10735SOL     OW37051   2.876   7.684   6.557
10735SOL    HW137052   2.868   7.648   6.464
10735SOL    HW237053   2.874   7.608   6.622
10736SOL     OW37054   2.452   8.935   6.077
10736SOL    HW137055   2.494   8.877   6.007
10736SOL    HW237056   2.408   9.014   6.033
10737SOL     OW37057   3.571   7.833   6.967
10737SOL    HW137058   3.644   7.902   6.971
10737SOL    HW237059   3.599   7.758   6.908
10738SOL     OW37060   2.117   8.796   5.876
10738SOL    HW137061   2.021   8.797   5.849
10738SOL    HW237062   2.129   8.849   5.960
10739SOL     OW37063   1.967   8.461   7.312
10739SOL    HW137064   1.890   8.428   7.366
10739SOL    HW237065   2.052   8.431   7.354
10740SOL     OW37066   2.534   7.651   7.075
10740SOL    HW137067   2.624   7.635   7.035
10740SOL    HW237068   2.542   7.656   7.174
10741SOL     OW37069   1.937   7.793   5.619
10741SOL    HW137070   1.845   7.765   5.590
10741SOL    HW237071   1.968   7.870   5.563
10742SOL     OW37072   3.302   8.304   6.984
10742SOL    HW137073   3.245   8.356   6.921
10742SOL    HW237074   3.398   8.316   6.960
10743SOL     OW37075   1.934   7.614   5.904
10743SOL    HW137076   1.917   7.697   5.850
10743SOL    HW237077   2.024   7.577   5.882
10744SOL     OW37078   3.045   8.783   5.705
10744SOL    HW137079   2.946   8.772   5.707
10744SOL    HW237080   3.079   8.798   5.798
10745SOL     OW37081   2.475   8.290   7.017
10745SOL    HW137082   2.531   8.371   7.000
10745SOL    HW237083   2.534   8.210   7.020
10746SOL     OW37084   3.355   9.215   6.545
10746SOL    HW137085   3.388   9.279   6.476
10746SOL    HW237086   3.421   9.209   6.620
10747SOL     OW37087   2.578   8.013   7.294
10747SOL    HW137088   2.597   8.078   7.368
10747SOL    HW237089   2.638   7.933   7.303
10748SOL     OW37090   3.312   8.668   7.219
10748SOL    HW137091   3.303   8.658   7.318
10748SOL    HW237092   3.408   8.661   7.193
10749SOL     OW37093   2.252   9.189   7.146
10749SOL    HW137094   2.161   9.230   7.144
10749SOL    HW237095   2.245   9.095   7.178
10750SOL     OW37096   3.536   8.331   6.840
10750SOL    HW137097   3.509   8.242   6.803
10750SOL    HW237098   3.537   8.399   6.767
10751SOL     OW37099   3.087   7.773   6.035
10751SOL    HW137100   3.152   7.699   6.024
10751SOL    HW237101   3.107   7.823   6.119
10752SOL     OW37102   2.456   8.193   6.238
10752SOL    HW137103   2.506   8.278   6.219
10752SOL    HW237104   2.368   8.195   6.190
10753SOL     OW37105   3.639   7.790   7.228
10753SOL    HW137106   3.622   7.821   7.134
10753SOL    HW237107   3.555   7.753   7.266
10754SOL     OW37108   3.592   8.382   7.103
10754SOL    HW137109   3.630   8.473   7.118
10754SOL    HW237110   3.584   8.365   7.004
10755SOL     OW37111   2.721   8.822   5.602
10755SOL    HW137112   2.675   8.837   5.690
10755SOL    HW237113   2.765   8.907   5.572
10756SOL     OW37114   2.523   9.238   6.539
10756SOL    HW137115   2.477   9.326   6.526
10756SOL    HW237116   2.622   9.250   6.532
10757SOL     OW37117   2.721   8.404   6.447
10757SOL    HW137118   2.775   8.335   6.495
10757SOL    HW237119   2.689   8.473   6.513
10758SOL     OW37120   2.945   8.432   5.673
10758SOL    HW137121   2.922   8.485   5.591
10758SOL    HW237122   3.026   8.376   5.654
10759SOL     OW37123   3.723   9.017   6.437
10759SOL    HW137124   3.652   9.005   6.367
10759SOL    HW237125   3.724   8.938   6.497
10760SOL     OW37126   2.083   8.762   7.430
10760SOL    HW137127   2.018   8.689   7.409
10760SOL    HW237128   2.087   8.776   7.528
10761SOL     OW37129   1.941   8.688   6.239
10761SOL    HW137130   1.940   8.641   6.327
10761SOL    HW237131   2.023   8.660   6.188
10762SOL     OW37132   2.534   8.839   7.210
10762SOL    HW137133   2.456   8.789   7.248
10762SOL    HW237134   2.531   8.934   7.241
10763SOL     OW37135   3.686   7.640   6.813
10763SOL    HW137136   3.682   7.550   6.857
10763SOL    HW237137   3.689   7.629   6.714
10764SOL     OW37138   2.290   7.872   6.106
10764SOL    HW137139   2.320   7.800   6.044
10764SOL    HW237140   2.251   7.832   6.189
10765SOL     OW37141   3.567   8.935   6.690
10765SOL    HW137142   3.474   8.910   6.663
10765SOL    HW237143   3.593   8.885   6.772
10766SOL     OW37144   2.179   7.995   6.866
10766SOL    HW137145   2.217   7.936   6.938
10766SOL    HW237146   2.219   7.969   6.778
10767SOL     OW37147   2.674   9.034   6.273
10767SOL    HW137148   2.706   9.044   6.179
10767SOL    HW237149   2.595   8.972   6.275
10768SOL     OW37150   3.286   7.662   6.698
10768SOL    HW137151   3.338   7.597   6.753
10768SOL    HW237152   3.237   7.725   6.759
10769SOL     OW37153   2.632   8.778   5.887
10769SOL    HW137154   2.586   8.691   5.904
10769SOL    HW237155   2.723   8.775   5.928
10770SOL     OW37156   2.480   9.015   6.870
10770SOL    HW137157   2.475   9.097   6.927
10770SOL    HW237158   2.569   9.012   6.825
10771SOL     OW37159   3.214   7.500   5.754
10771SOL    HW137160   3.249   7.459   5.670
10771SOL    HW237161   3.124   7.462   5.774
10772SOL     OW37162   3.162   7.901   6.277
10772SOL    HW137163   3.103   7.981   6.281
10772SOL    HW237164   3.177   7.866   6.370
10773SOL     OW37165   3.455   7.669   6.468
10773SOL    HW137166   3.371   7.668   6.522
10773SOL    HW237167   3.457   7.752   6.412
10774SOL     OW37168   1.901   8.525   5.886
10774SOL    HW137169   2.000   8.514   5.877
10774SOL    HW237170   1.861   8.439   5.918
10775SOL     OW37171   2.737   9.094   5.923
10775SOL    HW137172   2.660   9.059   5.869
10775SOL    HW237173   2.705   9.165   5.985
10776SOL     OW37174   2.092   8.076   7.561
10776SOL    HW137175   1.999   8.074   7.598
10776SOL    HW237176   2.093   8.037   7.469
10777SOL     OW37177   2.087   7.723   8.444
10777SOL    HW137178   2.122   7.706   8.536
10777SOL    HW237179   1.999   7.678   8.432
10778SOL     OW37180   1.881   7.816   8.095
10778SOL    HW137181   1.799   7.859   8.134
10778SOL    HW237182   1.853   7.743   8.032
10779SOL     OW37183   2.431   8.723   8.613
10779SOL    HW137184   2.338   8.716   8.576
10779SOL    HW237185   2.442   8.812   8.657
10780SOL     OW37186   3.417   8.959   8.151
10780SOL    HW137187   3.360   8.943   8.232
10780SOL    HW237188   3.358   8.969   8.071
10781SOL     OW37189   2.997   8.151   8.165
10781SOL    HW137190   3.054   8.229   8.140
10781SOL    HW237191   2.937   8.177   8.241
10782SOL     OW37192   3.617   8.055   7.679
10782SOL    HW137193   3.605   8.042   7.580
10782SOL    HW237194   3.587   7.974   7.728
10783SOL     OW37195   2.630   8.592   8.471
10783SOL    HW137196   2.552   8.609   8.531
10783SOL    HW237197   2.664   8.679   8.435
10784SOL     OW37198   2.712   8.246   9.271
10784SOL    HW137199   2.708   8.322   9.336
10784SOL    HW237200   2.734   8.282   9.180
10785SOL     OW37201   2.548   8.609   9.251
10785SOL    HW137202   2.608   8.688   9.265
10785SOL    HW237203   2.462   8.640   9.210
10786SOL     OW37204   2.197   8.883   8.509
10786SOL    HW137205   2.119   8.852   8.456
10786SOL    HW237206   2.255   8.941   8.452
10787SOL     OW37207   3.322   8.953   8.787
10787SOL    HW137208   3.346   9.047   8.813
10787SOL    HW237209   3.306   8.899   8.869
10788SOL     OW37210   2.300   7.840   8.947
10788SOL    HW137211   2.382   7.784   8.956
10788SOL    HW237212   2.219   7.782   8.951
10789SOL     OW37213   3.465   7.895   8.185
10789SOL    HW137214   3.391   7.941   8.135
10789SOL    HW237215   3.516   7.963   8.238
10790SOL     OW37216   2.093   9.161   7.931
10790SOL    HW137217   2.127   9.238   7.985
10790SOL    HW237218   2.137   9.161   7.841
10791SOL     OW37219   2.989   8.789   9.138
10791SOL    HW137220   3.036   8.789   9.226
10791SOL    HW237221   2.941   8.702   9.127
10792SOL     OW37222   2.092   8.882   7.986
10792SOL    HW137223   2.066   8.978   7.986
10792SOL    HW237224   2.021   8.828   8.031
10793SOL     OW37225   2.102   8.539   8.334
10793SOL    HW137226   2.116   8.455   8.386
10793SOL    HW237227   2.047   8.603   8.389
10794SOL     OW37228   2.482   9.234   8.887
10794SOL    HW137229   2.390   9.217   8.922
10794SOL    HW237230   2.510   9.326   8.913
10795SOL     OW37231   3.456   7.562   8.928
10795SOL    HW137232   3.438   7.629   8.856
10795SOL    HW237233   3.453   7.608   9.017
10796SOL     OW37234   1.984   8.091   8.011
10796SOL    HW137235   1.939   8.003   8.028
10796SOL    HW237236   1.983   8.145   8.095
10797SOL     OW37237   3.704   9.215   7.807
10797SOL    HW137238   3.758   9.186   7.887
10797SOL    HW237239   3.734   9.305   7.778
10798SOL     OW37240   1.889   9.044   7.565
10798SOL    HW137241   1.870   8.948   7.586
10798SOL    HW237242   1.856   9.102   7.640
10799SOL     OW37243   3.551   8.370   8.060
10799SOL    HW137244   3.646   8.341   8.068
10799SOL    HW237245   3.543   8.435   7.985
10800SOL     OW37246   3.503   8.556   7.880
10800SOL    HW137247   3.589   8.558   7.828
10800SOL    HW237248   3.517   8.603   7.968
10801SOL     OW37249   1.975   8.185   9.045
10801SOL    HW137250   2.063   8.172   9.090
10801SOL    HW237251   1.962   8.282   9.023
10802SOL     OW37252   2.475   8.813   8.174
10802SOL    HW137253   2.426   8.726   8.183
10802SOL    HW237254   2.452   8.856   8.087
10803SOL     OW37255   3.155   8.676   8.871
10803SOL    HW137256   3.192   8.603   8.813
10803SOL    HW237257   3.207   8.681   8.956
10804SOL     OW37258   2.671   7.452   7.950
10804SOL    HW137259   2.711   7.543   7.941
10804SOL    HW237260   2.571   7.460   7.956
10805SOL     OW37261   2.059   8.424   8.712
10805SOL    HW137262   2.148   8.379   8.698
10805SOL    HW237263   1.986   8.359   8.693
10806SOL     OW37264   3.387   8.447   7.638
10806SOL    HW137265   3.324   8.371   7.651
10806SOL    HW237266   3.435   8.465   7.724
10807SOL     OW37267   3.049   9.240   9.064
10807SOL    HW137268   3.073   9.300   8.988
10807SOL    HW237269   3.056   9.145   9.034
10808SOL     OW37270   2.179   7.699   9.249
10808SOL    HW137271   2.250   7.770   9.255
10808SOL    HW237272   2.091   7.738   9.277
10809SOL     OW37273   3.328   8.865   8.401
10809SOL    HW137274   3.269   8.871   8.481
10809SOL    HW237275   3.313   8.777   8.355
10810SOL     OW37276   3.529   9.162   8.020
10810SOL    HW137277   3.488   9.139   7.932
10810SOL    HW237278   3.511   9.088   8.085
10811SOL     OW37279   3.143   7.793   8.392
10811SOL    HW137280   3.057   7.743   8.379
10811SOL    HW237281   3.205   7.739   8.448
10812SOL     OW37282   3.438   9.110   7.755
10812SOL    HW137283   3.527   9.156   7.758
10812SOL    HW237284   3.417   9.086   7.660
10813SOL     OW37285   2.669   8.053   8.913
10813SOL    HW137286   2.622   8.050   9.002
10813SOL    HW237287   2.618   7.998   8.847
10814SOL     OW37288   3.256   7.917   9.122
10814SOL    HW137289   3.236   7.960   9.210
10814SOL    HW237290   3.334   7.855   9.131
10815SOL     OW37291   2.835   8.338   9.020
10815SOL    HW137292   2.881   8.254   8.991
10815SOL    HW237293   2.779   8.372   8.945
10816SOL     OW37294   2.903   8.149   7.877
10816SOL    HW137295   2.929   8.145   7.973
10816SOL    HW237296   2.818   8.098   7.863
10817SOL     OW37297   1.938   8.259   8.237
10817SOL    HW137298   2.037   8.247   8.246
10817SOL    HW237299   1.914   8.354   8.258
10818SOL     OW37300   1.992   9.269   9.019
10818SOL    HW137301   1.982   9.254   9.118
10818SOL    HW237302   1.906   9.305   8.983
10819SOL     OW37303   2.727   7.796   7.643
10819SOL    HW137304   2.786   7.859   7.594
10819SOL    HW237305   2.746   7.702   7.614
10820SOL     OW37306   3.581   8.033   9.279
10820SOL    HW137307   3.555   8.122   9.243
10820SOL    HW237308   3.579   7.965   9.206
10821SOL     OW37309   3.224   8.592   7.993
10821SOL    HW137310   3.307   8.563   7.945
10821SOL    HW237311   3.175   8.659   7.937
10822SOL     OW37312   2.412   7.644   8.333
10822SOL    HW137313   2.407   7.639   8.433
10822SOL    HW237314   2.414   7.740   8.304
10823SOL     OW37315   2.870   8.904   7.925
10823SOL    HW137316   2.824   8.976   7.873
10823SOL    HW237317   2.866   8.924   8.023
10824SOL     OW37318   3.657   8.514   8.321
10824SOL    HW137319   3.595   8.499   8.245
10824SOL    HW237320   3.605   8.525   8.406
10825SOL     OW37321   3.089   8.998   8.954
10825SOL    HW137322   3.095   8.921   9.018
10825SOL    HW237323   3.037   8.972   8.874
10826SOL     OW37324   2.183   8.391   7.690
10826SOL    HW137325   2.265   8.430   7.648
10826SOL    HW237326   2.156   8.309   7.641
10827SOL     OW37327   3.320   8.183   8.176
10827SOL    HW137328   3.315   8.118   8.251
10827SOL    HW237329   3.400   8.242   8.189
10828SOL     OW37330   2.323   8.714   9.175
10828SOL    HW137331   2.273   8.715   9.089
10828SOL    HW237332   2.260   8.696   9.251
10829SOL     OW37333   2.064   7.733   8.946
10829SOL    HW137334   1.984   7.793   8.933
10829SOL    HW237335   2.054   7.684   9.032
10830SOL     OW37336   3.494   8.825   7.529
10830SOL    HW137337   3.462   8.919   7.519
10830SOL    HW237338   3.418   8.762   7.517
10831SOL     OW37339   2.326   9.191   7.771
10831SOL    HW137340   2.359   9.230   7.857
10831SOL    HW237341   2.402   9.184   7.706
10832SOL     OW37342   3.262   7.555   7.874
10832SOL    HW137343   3.238   7.518   7.784
10832SOL    HW237344   3.361   7.571   7.878
10833SOL     OW37345   2.111   9.233   8.689
10833SOL    HW137346   2.168   9.168   8.739
10833SOL    HW237347   2.095   9.200   8.596
10834SOL     OW37348   2.802   9.146   8.352
10834SOL    HW137349   2.882   9.089   8.373
10834SOL    HW237350   2.753   9.106   8.275
10835SOL     OW37351   3.409   7.670   9.177
10835SOL    HW137352   3.404   7.707   9.269
10835SOL    HW237353   3.337   7.601   9.165
10836SOL     OW37354   2.476   7.570   7.565
10836SOL    HW137355   2.574   7.548   7.572
10836SOL    HW237356   2.445   7.553   7.472
10837SOL     OW37357   2.643   7.712   9.197
10837SOL    HW137358   2.710   7.651   9.240
10837SOL    HW237359   2.570   7.731   9.262
10838SOL     OW37360   3.213   8.038   8.881
10838SOL    HW137361   3.241   7.995   8.966
10838SOL    HW237362   3.238   8.134   8.882
10839SOL     OW37363   2.665   8.850   8.372
10839SOL    HW137364   2.755   8.864   8.330
10839SOL    HW237365   2.594   8.852   8.301
10840SOL     OW37366   2.784   7.951   8.347
10840SOL    HW137367   2.759   7.942   8.251
10840SOL    HW237368   2.832   7.869   8.378
10841SOL     OW37369   2.401   7.512   7.960
10841SOL    HW137370   2.320   7.513   8.018
10841SOL    HW237371   2.404   7.595   7.905
10842SOL     OW37372   2.159   7.483   7.619
10842SOL    HW137373   2.208   7.567   7.598
10842SOL    HW237374   2.221   7.418   7.664
10843SOL     OW37375   2.797   7.684   7.928
10843SOL    HW137376   2.749   7.725   7.850
10843SOL    HW237377   2.896   7.682   7.909
10844SOL     OW37378   2.938   8.131   8.912
10844SOL    HW137379   2.858   8.070   8.915
10844SOL    HW237380   3.019   8.078   8.888
10845SOL     OW37381   3.089   9.018   8.241
10845SOL    HW137382   3.110   9.092   8.176
10845SOL    HW237383   3.157   9.018   8.314
10846SOL     OW37384   2.321   8.600   8.189
10846SOL    HW137385   2.250   8.573   8.254
10846SOL    HW237386   2.295   8.572   8.096
10847SOL     OW37387   3.133   9.245   8.039
10847SOL    HW137388   3.177   9.309   7.975
10847SOL    HW237389   3.083   9.297   8.109
10848SOL     OW37390   2.894   7.997   7.464
10848SOL    HW137391   2.853   8.079   7.425
10848SOL    HW237392   2.958   8.023   7.537
10849SOL     OW37393   1.940   8.004   8.834
10849SOL    HW137394   2.032   8.003   8.793
10849SOL    HW237395   1.934   8.078   8.901
10850SOL     OW37396   2.423   7.670   8.595
10850SOL    HW137397   2.461   7.586   8.632
10850SOL    HW237398   2.335   7.689   8.639
10851SOL     OW37399   2.728   7.902   8.090
10851SOL    HW137400   2.696   7.974   8.028
10851SOL    HW237401   2.752   7.821   8.037
10852SOL     OW37402   2.879   7.487   8.201
10852SOL    HW137403   2.807   7.492   8.132
10852SOL    HW237404   2.855   7.418   8.270
10853SOL     OW37405   3.291   8.621   8.315
10853SOL    HW137406   3.236   8.537   8.308
10853SOL    HW237407   3.317   8.650   8.223
10854SOL     OW37408   3.328   8.038   8.440
10854SOL    HW137409   3.298   7.943   8.447
10854SOL    HW237410   3.401   8.054   8.506
10855SOL     OW37411   3.719   8.281   7.825
10855SOL    HW137412   3.761   8.217   7.889
10855SOL    HW237413   3.681   8.230   7.747
10856SOL     OW37414   2.350   8.833   7.622
10856SOL    HW137415   2.263   8.818   7.669
10856SOL    HW237416   2.333   8.859   7.527
10857SOL     OW37417   3.526   8.728   8.105
10857SOL    HW137418   3.625   8.736   8.119
10857SOL    HW237419   3.481   8.812   8.136
10858SOL     OW37420   3.616   8.671   9.036
10858SOL    HW137421   3.707   8.632   9.023
10858SOL    HW237422   3.624   8.767   9.060
10859SOL     OW37423   2.926   8.795   8.788
10859SOL    HW137424   2.846   8.772   8.843
10859SOL    HW237425   3.009   8.769   8.837
10860SOL     OW37426   2.973   8.643   8.548
10860SOL    HW137427   2.933   8.687   8.629
10860SOL    HW237428   2.932   8.680   8.465
10861SOL     OW37429   3.500   8.547   8.527
10861SOL    HW137430   3.505   8.628   8.586
10861SOL    HW237431   3.414   8.549   8.476
10862SOL     OW37432   2.777   7.537   8.850
10862SOL    HW137433   2.802   7.517   8.755
10862SOL    HW237434   2.849   7.593   8.892
10863SOL     OW37435   2.842   8.564   9.167
10863SOL    HW137436   2.743   8.570   9.177
10863SOL    HW237437   2.865   8.484   9.111
10864SOL     OW37438   2.272   8.261   8.699
10864SOL    HW137439   2.358   8.273   8.749
10864SOL    HW237440   2.230   8.174   8.726
10865SOL     OW37441   3.136   7.834   8.710
10865SOL    HW137442   3.157   7.908   8.774
10865SOL    HW237443   3.047   7.851   8.667
10866SOL     OW37444   1.926   9.012   8.779
10866SOL    HW137445   1.880   9.094   8.745
10866SOL    HW237446   2.024   9.031   8.788
10867SOL     OW37447   2.229   8.548   7.949
10867SOL    HW137448   2.222   8.631   7.893
10867SOL    HW237449   2.233   8.468   7.889
10868SOL     OW37450   2.428   7.985   8.313
10868SOL    HW137451   2.440   8.051   8.239
10868SOL    HW237452   2.474   8.019   8.396
10869SOL     OW37453   3.134   8.893   8.590
10869SOL    HW137454   3.181   8.906   8.677
10869SOL    HW237455   3.068   8.819   8.599
10870SOL     OW37456   3.444   8.087   7.920
10870SOL    HW137457   3.413   8.148   7.993
10870SOL    HW237458   3.494   8.139   7.851
10871SOL     OW37459   2.216   8.958   8.777
10871SOL    HW137460   2.195   8.914   8.690
10871SOL    HW237461   2.313   8.984   8.780
10872SOL     OW37462   2.264   8.199   9.046
10872SOL    HW137463   2.332   8.254   8.999
10872SOL    HW237464   2.304   8.111   9.073
10873SOL     OW37465   3.449   8.227   9.118
10873SOL    HW137466   3.357   8.265   9.113
10873SOL    HW237467   3.509   8.274   9.053
10874SOL     OW37468   2.875   7.553   9.218
10874SOL    HW137469   2.881   7.638   9.166
10874SOL    HW237470   2.907   7.477   9.161
10875SOL     OW37471   2.366   7.498   9.188
10875SOL    HW137472   2.324   7.441   9.118
10875SOL    HW237473   2.300   7.567   9.220
10876SOL     OW37474   2.435   8.318   8.477
10876SOL    HW137475   2.479   8.407   8.468
10876SOL    HW237476   2.372   8.318   8.554
10877SOL     OW37477   3.222   8.310   8.493
10877SOL    HW137478   3.147   8.310   8.427
10877SOL    HW237479   3.259   8.218   8.502
10878SOL     OW37480   2.169   7.661   8.679
10878SOL    HW137481   2.146   7.698   8.769
10878SOL    HW237482   2.139   7.566   8.673
10879SOL     OW37483   1.899   8.758   8.730
10879SOL    HW137484   1.952   8.709   8.798
10879SOL    HW237485   1.921   8.856   8.735
10880SOL     OW37486   2.594   8.082   8.512
10880SOL    HW137487   2.653   8.056   8.436
10880SOL    HW237488   2.566   8.178   8.501
10881SOL     OW37489   2.169   7.511   8.066
10881SOL    HW137490   2.158   7.605   8.099
10881SOL    HW237491   2.164   7.448   8.143
10882SOL     OW37492   3.484   7.815   7.822
10882SOL    HW137493   3.486   7.739   7.886
10882SOL    HW237494   3.436   7.892   7.862
10883SOL     OW37495   2.885   8.214   8.414
10883SOL    HW137496   2.900   8.235   8.510
10883SOL    HW237497   2.855   8.119   8.405
10884SOL     OW37498   2.842   9.021   9.148
10884SOL    HW137499   2.822   9.065   9.060
10884SOL    HW237500   2.881   8.930   9.132
10885SOL     OW37501   3.721   8.966   9.053
10885SOL    HW137502   3.735   8.993   8.958
10885SOL    HW237503   3.804   8.988   9.106
10886SOL     OW37504   2.212   8.346   9.252
10886SOL    HW137505   2.288   8.390   9.300
10886SOL    HW237506   2.247   8.299   9.170
10887SOL     OW37507   3.165   8.286   7.490
10887SOL    HW137508   3.199   8.193   7.505
10887SOL    HW237509   3.183   8.313   7.395
10888SOL     OW37510   2.930   8.781   8.297
10888SOL    HW137511   2.937   8.697   8.242
10888SOL    HW237512   2.992   8.850   8.261
10889SOL     OW37513   2.201   7.957   8.454
10889SOL    HW137514   2.149   7.874   8.437
10889SOL    HW237515   2.278   7.962   8.390
10890SOL     OW37516   3.000   7.828   9.126
10890SOL    HW137517   2.955   7.891   9.190
10890SOL    HW237518   3.093   7.859   9.109
10891SOL     OW37519   3.022   7.655   8.925
10891SOL    HW137520   3.022   7.719   9.002
10891SOL    HW237521   3.050   7.703   8.842
10892SOL     OW37522   1.870   8.774   7.648
10892SOL    HW137523   1.777   8.795   7.617
10892SOL    HW237524   1.880   8.675   7.661
10893SOL     OW37525   2.864   8.244   8.686
10893SOL    HW137526   2.905   8.212   8.772
10893SOL    HW237527   2.768   8.217   8.683
10894SOL     OW37528   2.051   7.968   9.170
10894SOL    HW137529   2.110   7.928   9.100
10894SOL    HW237530   1.993   8.039   9.129
10895SOL     OW37531   3.231   8.398   9.108
10895SOL    HW137532   3.270   8.487   9.128
10895SOL    HW237533   3.241   8.378   9.011
10896SOL     OW37534   3.519   8.052   8.654
10896SOL    HW137535   3.481   7.983   8.716
10896SOL    HW237536   3.601   8.016   8.610
10897SOL     OW37537   2.114   9.012   9.192
10897SOL    HW137538   2.084   9.069   9.268
10897SOL    HW237539   2.107   8.915   9.218
10898SOL     OW37540   2.533   7.912   8.717
10898SOL    HW137541   2.499   7.823   8.687
10898SOL    HW237542   2.559   7.966   8.637
10899SOL     OW37543   2.021   8.585   8.914
10899SOL    HW137544   2.043   8.524   8.990
10899SOL    HW237545   2.031   8.536   8.828
10900SOL     OW37546   3.209   8.507   8.682
10900SOL    HW137547   3.233   8.444   8.608
10900SOL    HW237548   3.119   8.547   8.664
10901SOL     OW37549   3.164   8.303   7.757
10901SOL    HW137550   3.078   8.272   7.799
10901SOL    HW237551   3.160   8.289   7.658
10902SOL     OW37552   3.114   9.179   8.576
10902SOL    HW137553   3.198   9.184   8.522
10902SOL    HW237554   3.091   9.083   8.594
10903SOL     OW37555   1.945   8.706   8.470
10903SOL    HW137556   1.940   8.705   8.570
10903SOL    HW237557   1.862   8.665   8.432
10904SOL     OW37558   2.550   9.110   9.164
10904SOL    HW137559   2.494   9.191   9.173
10904SOL    HW237560   2.602   9.114   9.078
10905SOL     OW37561   3.588   7.583   7.971
10905SOL    HW137562   3.661   7.566   7.904
10905SOL    HW237563   3.557   7.496   8.009
10906SOL     OW37564   3.250   9.021   7.925
10906SOL    HW137565   3.317   9.033   7.851
10906SOL    HW237566   3.210   9.110   7.948
10907SOL     OW37567   1.992   9.242   9.299
10907SOL    HW137568   1.951   9.168   9.352
10907SOL    HW237569   2.056   9.293   9.357
10908SOL     OW37570   3.142   8.375   8.120
10908SOL    HW137571   3.202   8.294   8.122
10908SOL    HW237572   3.182   8.444   8.060
10909SOL     OW37573   2.692   8.721   8.870
10909SOL    HW137574   2.687   8.754   8.965
10909SOL    HW237575   2.606   8.740   8.824
10910SOL     OW37576   2.534   9.064   7.602
10910SOL    HW137577   2.543   9.074   7.503
10910SOL    HW237578   2.494   8.975   7.623
10911SOL     OW37579   3.703   7.623   8.411
10911SOL    HW137580   3.742   7.538   8.375
10911SOL    HW237581   3.605   7.625   8.392
10912SOL     OW37582   2.125   7.774   8.168
10912SOL    HW137583   2.046   7.825   8.134
10912SOL    HW237584   2.116   7.759   8.266
10913SOL     OW37585   3.056   9.060   7.479
10913SOL    HW137586   3.062   8.967   7.516
10913SOL    HW237587   2.997   9.060   7.399
10914SOL     OW37588   2.684   8.450   8.820
10914SOL    HW137589   2.724   8.449   8.728
10914SOL    HW237590   2.694   8.542   8.860
10915SOL     OW37591   2.778   8.358   7.739
10915SOL    HW137592   2.841   8.396   7.671
10915SOL    HW237593   2.818   8.275   7.778
10916SOL     OW37594   3.366   9.055   7.492
10916SOL    HW137595   3.274   9.092   7.499
10916SOL    HW237596   3.404   9.075   7.402
10917SOL     OW37597   2.234   8.736   8.938
10917SOL    HW137598   2.221   8.829   8.904
10917SOL    HW237599   2.150   8.684   8.925
10918SOL     OW37600   3.476   8.740   8.737
10918SOL    HW137601   3.536   8.743   8.817
10918SOL    HW237602   3.401   8.804   8.750
10919SOL     OW37603   2.901   8.546   8.144
10919SOL    HW137604   2.831   8.499   8.198
10919SOL    HW237605   2.960   8.478   8.101
10920SOL     OW37606   2.876   7.684   8.419
10920SOL    HW137607   2.868   7.648   8.326
10920SOL    HW237608   2.874   7.608   8.484
10921SOL     OW37609   2.452   8.935   7.939
10921SOL    HW137610   2.494   8.877   7.869
10921SOL    HW237611   2.408   9.014   7.895
10922SOL     OW37612   3.571   7.833   8.829
10922SOL    HW137613   3.644   7.902   8.833
10922SOL    HW237614   3.599   7.758   8.770
10923SOL     OW37615   2.117   8.796   7.738
10923SOL    HW137616   2.021   8.797   7.711
10923SOL    HW237617   2.129   8.849   7.822
10924SOL     OW37618   1.967   8.461   9.174
10924SOL    HW137619   1.890   8.428   9.228
10924SOL    HW237620   2.052   8.431   9.216
10925SOL     OW37621   2.534   7.651   8.937
10925SOL    HW137622   2.624   7.635   8.897
10925SOL    HW237623   2.542   7.656   9.036
10926SOL     OW37624   1.937   7.793   7.481
10926SOL    HW137625   1.845   7.765   7.452
10926SOL    HW237626   1.968   7.870   7.425
10927SOL     OW37627   3.302   8.304   8.846
10927SOL    HW137628   3.245   8.356   8.783
10927SOL    HW237629   3.398   8.316   8.822
10928SOL     OW37630   1.934   7.614   7.766
10928SOL    HW137631   1.917   7.697   7.712
10928SOL    HW237632   2.024   7.577   7.744
10929SOL     OW37633   2.475   8.290   8.879
10929SOL    HW137634   2.531   8.371   8.862
10929SOL    HW237635   2.534   8.210   8.882
10930SOL     OW37636   3.355   9.215   8.407
10930SOL    HW137637   3.388   9.279   8.338
10930SOL    HW237638   3.421   9.209   8.482
10931SOL     OW37639   2.578   8.013   9.156
10931SOL    HW137640   2.597   8.078   9.230
10931SOL    HW237641   2.638   7.933   9.165
10932SOL     OW37642   3.312   8.668   9.081
10932SOL    HW137643   3.303   8.658   9.180
10932SOL    HW237644   3.408   8.661   9.055
10933SOL     OW37645   2.252   9.189   9.008
10933SOL    HW137646   2.161   9.230   9.006
10933SOL    HW237647   2.245   9.095   9.040
10934SOL     OW37648   3.536   8.331   8.702
10934SOL    HW137649   3.509   8.242   8.665
10934SOL    HW237650   3.537   8.399   8.629
10935SOL     OW37651   3.087   7.773   7.897
10935SOL    HW137652   3.152   7.699   7.886
10935SOL    HW237653   3.107   7.823   7.981
10936SOL     OW37654   3.639   7.790   9.090
10936SOL    HW137655   3.622   7.821   8.996
10936SOL    HW237656   3.555   7.753   9.128
10937SOL     OW37657   3.592   8.382   8.965
10937SOL    HW137658   3.630   8.473   8.980
10937SOL    HW237659   3.584   8.365   8.866
10938SOL     OW37660   2.721   8.822   7.464
10938SOL    HW137661   2.675   8.837   7.552
10938SOL    HW237662   2.765   8.907   7.434
10939SOL     OW37663   2.721   8.404   8.309
10939SOL    HW137664   2.775   8.335   8.357
10939SOL    HW237665   2.689   8.473   8.375
10940SOL     OW37666   2.945   8.432   7.535
10940SOL    HW137667   2.922   8.485   7.453
10940SOL    HW237668   3.026   8.376   7.516
10941SOL     OW37669   3.723   9.017   8.299
10941SOL    HW137670   3.652   9.005   8.229
10941SOL    HW237671   3.724   8.938   8.359
10942SOL     OW37672   2.083   8.762   9.292
10942SOL    HW137673   2.018   8.689   9.271
10942SOL    HW237674   2.087   8.776   9.390
10943SOL     OW37675   1.941   8.688   8.101
10943SOL    HW137676   1.940   8.641   8.189
10943SOL    HW237677   2.023   8.660   8.050
10944SOL     OW37678   2.534   8.839   9.072
10944SOL    HW137679   2.456   8.789   9.110
10944SOL    HW237680   2.531   8.934   9.103
10945SOL     OW37681   3.686   7.640   8.675
10945SOL    HW137682   3.682   7.550   8.719
10945SOL    HW237683   3.689   7.629   8.576
10946SOL     OW37684   3.567   8.935   8.552
10946SOL    HW137685   3.474   8.910   8.525
10946SOL    HW237686   3.593   8.885   8.634
10947SOL     OW37687   2.179   7.995   8.728
10947SOL    HW137688   2.217   7.936   8.800
10947SOL    HW237689   2.219   7.969   8.640
10948SOL     OW37690   2.674   9.034   8.135
10948SOL    HW137691   2.706   9.044   8.041
10948SOL    HW237692   2.595   8.972   8.137
10949SOL     OW37693   3.286   7.662   8.560
10949SOL    HW137694   3.338   7.597   8.615
10949SOL    HW237695   3.237   7.725   8.621
10950SOL     OW37696   2.863   7.482   8.602
10950SOL    HW137697   2.800   7.410   8.571
10950SOL    HW237698   2.956   7.446   8.602
10951SOL     OW37699   2.632   8.778   7.749
10951SOL    HW137700   2.586   8.691   7.766
10951SOL    HW237701   2.723   8.775   7.790
10952SOL     OW37702   3.214   7.500   7.616
10952SOL    HW137703   3.249   7.459   7.532
10952SOL    HW237704   3.124   7.462   7.636
10953SOL     OW37705   3.162   7.901   8.139
10953SOL    HW137706   3.103   7.981   8.143
10953SOL    HW237707   3.177   7.866   8.232
10954SOL     OW37708   3.455   7.669   8.330
10954SOL    HW137709   3.371   7.668   8.384
10954SOL    HW237710   3.457   7.752   8.274
10955SOL     OW37711   1.901   8.525   7.748
10955SOL    HW137712   2.000   8.514   7.739
10955SOL    HW237713   1.861   8.439   7.780
10956SOL     OW37714   2.737   9.094   7.785
10956SOL    HW137715   2.660   9.059   7.731
10956SOL    HW237716   2.705   9.165   7.847
10957SOL     OW37717   2.092   8.076   9.423
10957SOL    HW137718   1.999   8.074   9.460
10957SOL    HW237719   2.093   8.037   9.331
10958SOL     OW37720   3.617   8.055   9.541
10958SOL    HW137721   3.605   8.042   9.442
10958SOL    HW237722   3.587   7.974   9.590
10959SOL     OW37723   2.093   9.161   9.793
10959SOL    HW137724   2.127   9.238   9.847
10959SOL    HW237725   2.137   9.161   9.703
10960SOL     OW37726   2.092   8.882   9.848
10960SOL    HW137727   2.066   8.978   9.848
10960SOL    HW237728   2.021   8.828   9.893
10961SOL     OW37729   2.468   8.412   9.433
10961SOL    HW137730   2.475   8.496   9.379
10961SOL    HW237731   2.514   8.425   9.521
10962SOL     OW37732   1.984   8.091   9.873
10962SOL    HW137733   1.939   8.003   9.890
10962SOL    HW237734   1.983   8.145   9.957
10963SOL     OW37735   3.704   9.215   9.669
10963SOL    HW137736   3.758   9.186   9.749
10963SOL    HW237737   3.734   9.305   9.640
10964SOL     OW37738   1.889   9.044   9.427
10964SOL    HW137739   1.870   8.948   9.448
10964SOL    HW237740   1.856   9.102   9.502
10965SOL     OW37741   3.551   8.370   9.922
10965SOL    HW137742   3.646   8.341   9.930
10965SOL    HW237743   3.543   8.435   9.847
10966SOL     OW37744   3.503   8.556   9.742
10966SOL    HW137745   3.589   8.558   9.690
10966SOL    HW237746   3.517   8.603   9.830
10967SOL     OW37747   2.475   8.813  10.036
10967SOL    HW137748   2.426   8.726  10.045
10967SOL    HW237749   2.452   8.856   9.949
10968SOL     OW37750   2.671   7.452   9.812
10968SOL    HW137751   2.711   7.543   9.803
10968SOL    HW237752   2.571   7.460   9.818
10969SOL     OW37753   3.387   8.447   9.500
10969SOL    HW137754   3.324   8.371   9.513
10969SOL    HW237755   3.435   8.465   9.586
10970SOL     OW37756   2.460   8.177   9.580
10970SOL    HW137757   2.484   8.246   9.512
10970SOL    HW237758   2.382   8.210   9.634
10971SOL     OW37759   3.438   9.110   9.617
10971SOL    HW137760   3.527   9.156   9.620
10971SOL    HW237761   3.417   9.086   9.522
10972SOL     OW37762   2.903   8.149   9.739
10972SOL    HW137763   2.929   8.145   9.835
10972SOL    HW237764   2.818   8.098   9.725
10973SOL     OW37765   1.938   8.259  10.099
10973SOL    HW137766   2.037   8.247  10.108
10973SOL    HW237767   1.914   8.354  10.120
10974SOL     OW37768   2.727   7.796   9.505
10974SOL    HW137769   2.786   7.859   9.456
10974SOL    HW237770   2.746   7.702   9.476
10975SOL     OW37771   3.224   8.592   9.855
10975SOL    HW137772   3.307   8.563   9.807
10975SOL    HW237773   3.175   8.659   9.799
10976SOL     OW37774   2.870   8.904   9.787
10976SOL    HW137775   2.824   8.976   9.735
10976SOL    HW237776   2.866   8.924   9.885
10977SOL     OW37777   2.213   9.249  10.163
10977SOL    HW137778   2.263   9.163  10.169
10977SOL    HW237779   2.278   9.326  10.160
10978SOL     OW37780   2.183   8.391   9.552
10978SOL    HW137781   2.265   8.430   9.510
10978SOL    HW237782   2.156   8.309   9.503
10979SOL     OW37783   2.973   9.224   9.547
10979SOL    HW137784   2.913   9.162   9.597
10979SOL    HW237785   3.004   9.180   9.462
10980SOL     OW37786   3.494   8.825   9.391
10980SOL    HW137787   3.462   8.919   9.381
10980SOL    HW237788   3.418   8.762   9.379
10981SOL     OW37789   2.326   9.191   9.633
10981SOL    HW137790   2.359   9.230   9.719
10981SOL    HW237791   2.402   9.184   9.568
10982SOL     OW37792   3.262   7.555   9.736
10982SOL    HW137793   3.238   7.518   9.646
10982SOL    HW237794   3.361   7.571   9.740
10983SOL     OW37795   2.244   8.148   9.790
10983SOL    HW137796   2.289   8.058   9.787
10983SOL    HW237797   2.150   8.137   9.823
10984SOL     OW37798   2.476   7.570   9.427
10984SOL    HW137799   2.574   7.548   9.434
10984SOL    HW237800   2.445   7.553   9.334
10985SOL     OW37801   2.401   7.512   9.822
10985SOL    HW137802   2.320   7.513   9.880
10985SOL    HW237803   2.404   7.595   9.767
10986SOL     OW37804   3.296   8.636   9.351
10986SOL    HW137805   3.328   8.560   9.408
10986SOL    HW237806   3.204   8.663   9.381
10987SOL     OW37807   2.159   7.483   9.481
10987SOL    HW137808   2.208   7.567   9.460
10987SOL    HW237809   2.221   7.418   9.526
10988SOL     OW37810   2.797   7.684   9.790
10988SOL    HW137811   2.749   7.725   9.712
10988SOL    HW237812   2.896   7.682   9.771
10989SOL     OW37813   2.321   8.600  10.051
10989SOL    HW137814   2.250   8.573  10.116
10989SOL    HW237815   2.295   8.572   9.958
10990SOL     OW37816   3.133   9.245   9.901
10990SOL    HW137817   3.177   9.309   9.837
10990SOL    HW237818   3.083   9.297   9.971
10991SOL     OW37819   2.728   7.902   9.952
10991SOL    HW137820   2.696   7.974   9.890
10991SOL    HW237821   2.752   7.821   9.899
10992SOL     OW37822   2.350   8.833   9.484
10992SOL    HW137823   2.263   8.818   9.531
10992SOL    HW237824   2.333   8.859   9.389
10993SOL     OW37825   3.252   8.023   9.388
10993SOL    HW137826   3.198   8.002   9.469
10993SOL    HW237827   3.343   7.982   9.397
10994SOL     OW37828   2.389   7.704   9.638
10994SOL    HW137829   2.416   7.645   9.563
10994SOL    HW237830   2.389   7.799   9.607
10995SOL     OW37831   2.567   8.498   9.678
10995SOL    HW137832   2.553   8.505   9.777
10995SOL    HW237833   2.651   8.447   9.660
10996SOL     OW37834   2.229   8.548   9.811
10996SOL    HW137835   2.222   8.631   9.755
10996SOL    HW237836   2.233   8.468   9.751
10997SOL     OW37837   3.114   8.796   9.698
10997SOL    HW137838   3.164   8.873   9.738
10997SOL    HW237839   3.019   8.798   9.730
10998SOL     OW37840   3.444   8.087   9.782
10998SOL    HW137841   3.413   8.148   9.855
10998SOL    HW237842   3.494   8.139   9.713
10999SOL     OW37843   3.071   7.973   9.585
10999SOL    HW137844   3.084   7.889   9.639
10999SOL    HW237845   3.042   8.047   9.645
11000SOL     OW37846   2.169   7.511   9.928
11000SOL    HW137847   2.158   7.605   9.961
11000SOL    HW237848   2.164   7.448  10.005
11001SOL     OW37849   3.484   7.815   9.684
11001SOL    HW137850   3.486   7.739   9.748
11001SOL    HW237851   3.436   7.892   9.724
11002SOL     OW37852   3.402   7.722   9.435
11002SOL    HW137853   3.341   7.647   9.458
11002SOL    HW237854   3.424   7.774   9.518
11003SOL     OW37855   3.165   8.286   9.352
11003SOL    HW137856   3.199   8.193   9.367
11003SOL    HW237857   3.183   8.313   9.257
11004SOL     OW37858   1.870   8.774   9.510
11004SOL    HW137859   1.777   8.795   9.479
11004SOL    HW237860   1.880   8.675   9.523
11005SOL     OW37861   2.677   8.020   9.635
11005SOL    HW137862   2.684   7.931   9.589
11005SOL    HW237863   2.583   8.054   9.627
11006SOL     OW37864   2.335   7.948   9.501
11006SOL    HW137865   2.396   8.028   9.505
11006SOL    HW237866   2.240   7.979   9.508
11007SOL     OW37867   3.164   8.303   9.619
11007SOL    HW137868   3.078   8.272   9.661
11007SOL    HW237869   3.160   8.289   9.520
11008SOL     OW37870   3.588   7.583   9.833
11008SOL    HW137871   3.661   7.566   9.766
11008SOL    HW237872   3.557   7.496   9.871
11009SOL     OW37873   3.250   9.021   9.787
11009SOL    HW137874   3.317   9.033   9.713
11009SOL    HW237875   3.210   9.110   9.810
11010SOL     OW37876   2.534   9.064   9.464
11010SOL    HW137877   2.543   9.074   9.365
11010SOL    HW237878   2.494   8.975   9.485
11011SOL     OW37879   3.056   9.060   9.341
11011SOL    HW137880   3.062   8.967   9.378
11011SOL    HW237881   2.997   9.060   9.261
11012SOL     OW37882   2.778   8.358   9.601
11012SOL    HW137883   2.841   8.396   9.533
11012SOL    HW237884   2.818   8.275   9.640
11013SOL     OW37885   3.366   9.055   9.354
11013SOL    HW137886   3.274   9.092   9.361
11013SOL    HW237887   3.404   9.075   9.264
11014SOL     OW37888   2.452   8.935   9.801
11014SOL    HW137889   2.494   8.877   9.731
11014SOL    HW237890   2.408   9.014   9.757
11015SOL     OW37891   2.117   8.796   9.600
11015SOL    HW137892   2.021   8.797   9.573
11015SOL    HW237893   2.129   8.849   9.684
11016SOL     OW37894   1.937   7.793   9.343
11016SOL    HW137895   1.845   7.765   9.314
11016SOL    HW237896   1.968   7.870   9.287
11017SOL     OW37897   1.934   7.614   9.628
11017SOL    HW137898   1.917   7.697   9.574
11017SOL    HW237899   2.024   7.577   9.606
11018SOL     OW37900   3.045   8.783   9.429
11018SOL    HW137901   2.946   8.772   9.431
11018SOL    HW237902   3.079   8.798   9.522
11019SOL     OW37903   3.087   7.773   9.759
11019SOL    HW137904   3.152   7.699   9.748
11019SOL    HW237905   3.107   7.823   9.843
11020SOL     OW37906   2.456   8.193   9.962
11020SOL    HW137907   2.506   8.278   9.943
11020SOL    HW237908   2.368   8.195   9.914
11021SOL     OW37909   2.721   8.822   9.326
11021SOL    HW137910   2.675   8.837   9.414
11021SOL    HW237911   2.765   8.907   9.296
11022SOL     OW37912   2.945   8.432   9.397
11022SOL    HW137913   2.922   8.485   9.315
11022SOL    HW237914   3.026   8.376   9.378
11023SOL     OW37915   1.941   8.688   9.963
11023SOL    HW137916   1.940   8.641  10.051
11023SOL    HW237917   2.023   8.660   9.912
11024SOL     OW37918   2.290   7.872   9.830
11024SOL    HW137919   2.320   7.800   9.768
11024SOL    HW237920   2.251   7.832   9.913
11025SOL     OW37921   3.214   7.500   9.478
11025SOL    HW137922   3.249   7.459   9.394
11025SOL    HW237923   3.124   7.462   9.498
11026SOL     OW37924   1.901   8.525   9.610
11026SOL    HW137925   2.000   8.514   9.601
11026SOL    HW237926   1.861   8.439   9.642
11027SOL     OW37927   2.737   9.094   9.647
11027SOL    HW137928   2.660   9.059   9.593
11027SOL    HW237929   2.705   9.165   9.709
11028SOL     OW37930   2.087   9.585   0.996
11028SOL    HW137931   2.122   9.568   1.088
11028SOL    HW237932   1.999   9.540   0.984
11029SOL     OW37933   1.881   9.678   0.647
11029SOL    HW137934   1.799   9.721   0.686
11029SOL    HW237935   1.853   9.605   0.584
11030SOL     OW37936   3.617   9.917   0.231
11030SOL    HW137937   3.605   9.904   0.132
11030SOL    HW237938   3.587   9.836   0.280
11031SOL     OW37939   2.300   9.702   1.499
11031SOL    HW137940   2.382   9.646   1.508
11031SOL    HW237941   2.219   9.644   1.503
11032SOL     OW37942   3.465   9.757   0.737
11032SOL    HW137943   3.391   9.803   0.687
11032SOL    HW237944   3.516   9.825   0.790
11033SOL     OW37945   3.456   9.424   1.480
11033SOL    HW137946   3.438   9.491   1.408
11033SOL    HW237947   3.453   9.470   1.569
11034SOL     OW37948   1.984   9.953   0.563
11034SOL    HW137949   1.939   9.865   0.580
11034SOL    HW237950   1.983  10.007   0.647
11035SOL     OW37951   2.671   9.314   0.502
11035SOL    HW137952   2.711   9.405   0.493
11035SOL    HW237953   2.571   9.322   0.508
11036SOL     OW37954   2.179   9.561   1.801
11036SOL    HW137955   2.250   9.632   1.807
11036SOL    HW237956   2.091   9.600   1.829
11037SOL     OW37957   3.143   9.655   0.944
11037SOL    HW137958   3.057   9.605   0.931
11037SOL    HW237959   3.205   9.601   1.000
11038SOL     OW37960   2.669   9.915   1.465
11038SOL    HW137961   2.622   9.912   1.554
11038SOL    HW237962   2.618   9.860   1.399
11039SOL     OW37963   3.256   9.779   1.674
11039SOL    HW137964   3.236   9.822   1.762
11039SOL    HW237965   3.334   9.717   1.683
11040SOL     OW37966   2.853   9.720   1.242
11040SOL    HW137967   2.776   9.754   1.296
11040SOL    HW237968   2.819   9.669   1.163
11041SOL     OW37969   2.903  10.011   0.429
11041SOL    HW137970   2.929  10.007   0.525
11041SOL    HW237971   2.818   9.960   0.415
11042SOL     OW37972   2.727   9.658   0.195
11042SOL    HW137973   2.786   9.721   0.146
11042SOL    HW237974   2.746   9.564   0.166
11043SOL     OW37975   3.581   9.895   1.831
11043SOL    HW137976   3.555   9.984   1.795
11043SOL    HW237977   3.579   9.827   1.758
11044SOL     OW37978   2.412   9.506   0.885
11044SOL    HW137979   2.407   9.501   0.985
11044SOL    HW237980   2.414   9.602   0.856
11045SOL     OW37981   3.320  10.045   0.728
11045SOL    HW137982   3.315   9.980   0.803
11045SOL    HW237983   3.400  10.104   0.741
11046SOL     OW37984   2.064   9.595   1.498
11046SOL    HW137985   1.984   9.655   1.485
11046SOL    HW237986   2.054   9.546   1.584
11047SOL     OW37987   3.262   9.417   0.426
11047SOL    HW137988   3.238   9.380   0.336
11047SOL    HW237989   3.361   9.433   0.430
11048SOL     OW37990   3.409   9.532   1.729
11048SOL    HW137991   3.404   9.569   1.821
11048SOL    HW237992   3.337   9.463   1.717
11049SOL     OW37993   3.213   9.900   1.433
11049SOL    HW137994   3.241   9.857   1.518
11049SOL    HW237995   3.238   9.996   1.434
11050SOL     OW37996   2.784   9.813   0.899
11050SOL    HW137997   2.759   9.804   0.803
11050SOL    HW237998   2.832   9.731   0.930
11051SOL     OW37999   2.401   9.374   0.512
11051SOL    HW138000   2.320   9.375   0.570
11051SOL    HW238001   2.404   9.457   0.457
11052SOL     OW38002   2.938   9.993   1.464
11052SOL    HW138003   2.858   9.932   1.467
11052SOL    HW238004   3.019   9.940   1.440
11053SOL     OW38005   2.894   9.859   0.016
11053SOL    HW138006   2.853   9.941  -0.023
11053SOL    HW238007   2.958   9.885   0.089
11054SOL     OW38008   1.940   9.866   1.386
11054SOL    HW138009   2.032   9.865   1.345
11054SOL    HW238010   1.934   9.940   1.453
11055SOL     OW38011   2.423   9.532   1.147
11055SOL    HW138012   2.461   9.448   1.184
11055SOL    HW238013   2.335   9.551   1.191
11056SOL     OW38014   2.728   9.764   0.642
11056SOL    HW138015   2.696   9.836   0.580
11056SOL    HW238016   2.752   9.683   0.589
11057SOL     OW38017   2.879   9.349   0.753
11057SOL    HW138018   2.807   9.354   0.684
11057SOL    HW238019   2.855   9.280   0.822
11058SOL     OW38020   3.328   9.900   0.992
11058SOL    HW138021   3.298   9.805   0.999
11058SOL    HW238022   3.401   9.916   1.058
11059SOL     OW38023   3.136   9.696   1.262
11059SOL    HW138024   3.157   9.770   1.326
11059SOL    HW238025   3.047   9.713   1.219
11060SOL     OW38026   2.428   9.847   0.865
11060SOL    HW138027   2.440   9.913   0.791
11060SOL    HW238028   2.474   9.881   0.948
11061SOL     OW38029   3.444   9.949   0.472
11061SOL    HW138030   3.413  10.010   0.545
11061SOL    HW238031   3.494  10.001   0.403
11062SOL     OW38032   2.875   9.415   1.770
11062SOL    HW138033   2.881   9.500   1.718
11062SOL    HW238034   2.907   9.339   1.713
11063SOL     OW38035   3.071   9.835   0.275
11063SOL    HW138036   3.084   9.751   0.329
11063SOL    HW238037   3.042   9.909   0.335
11064SOL     OW38038   2.169   9.523   1.231
11064SOL    HW138039   2.146   9.560   1.321
11064SOL    HW238040   2.139   9.428   1.225
11065SOL     OW38041   2.594   9.944   1.064
11065SOL    HW138042   2.653   9.918   0.988
11065SOL    HW238043   2.566  10.040   1.053
11066SOL     OW38044   2.169   9.373   0.618
11066SOL    HW138045   2.158   9.467   0.651
11066SOL    HW238046   2.164   9.310   0.695
11067SOL     OW38047   3.484   9.677   0.374
11067SOL    HW138048   3.486   9.601   0.438
11067SOL    HW238049   3.436   9.754   0.414
11068SOL     OW38050   3.402   9.584   0.125
11068SOL    HW138051   3.341   9.509   0.148
11068SOL    HW238052   3.424   9.636   0.208
11069SOL     OW38053   2.181  10.120   0.949
11069SOL    HW138054   2.274  10.156   0.954
11069SOL    HW238055   2.175  10.035   1.001
11070SOL     OW38056   2.201   9.819   1.006
11070SOL    HW138057   2.149   9.736   0.989
11070SOL    HW238058   2.278   9.824   0.942
11071SOL     OW38059   3.000   9.690   1.678
11071SOL    HW138060   2.955   9.753   1.742
11071SOL    HW238061   3.093   9.721   1.661
11072SOL     OW38062   3.022   9.517   1.477
11072SOL    HW138063   3.022   9.581   1.554
11072SOL    HW238064   3.050   9.565   1.394
11073SOL     OW38065   1.902   9.854   1.114
11073SOL    HW138066   1.987   9.821   1.073
11073SOL    HW238067   1.915   9.869   1.212
11074SOL     OW38068   2.051   9.830   1.722
11074SOL    HW138069   2.110   9.790   1.652
11074SOL    HW238070   1.993   9.901   1.681
11075SOL     OW38071   2.677   9.882   0.325
11075SOL    HW138072   2.684   9.793   0.279
11075SOL    HW238073   2.583   9.916   0.317
11076SOL     OW38074   2.533   9.774   1.269
11076SOL    HW138075   2.499   9.685   1.239
11076SOL    HW238076   2.559   9.828   1.189
11077SOL     OW38077   3.588   9.445   0.523
11077SOL    HW138078   3.661   9.428   0.456
11077SOL    HW238079   3.557   9.358   0.561
11078SOL     OW38080   3.703   9.485   0.963
11078SOL    HW138081   3.742   9.400   0.927
11078SOL    HW238082   3.605   9.487   0.944
11079SOL     OW38083   2.125   9.636   0.720
11079SOL    HW138084   2.046   9.687   0.686
11079SOL    HW238085   2.116   9.621   0.818
11080SOL     OW38086   2.876   9.546   0.971
11080SOL    HW138087   2.868   9.510   0.878
11080SOL    HW238088   2.874   9.470   1.036
11081SOL     OW38089   1.937   9.655   0.033
11081SOL    HW138090   1.845   9.627   0.004
11081SOL    HW238091   1.968   9.732  -0.023
11082SOL     OW38092   1.934   9.476   0.318
11082SOL    HW138093   1.917   9.559   0.264
11082SOL    HW238094   2.024   9.439   0.296
11083SOL     OW38095   2.578   9.875   1.708
11083SOL    HW138096   2.597   9.940   1.782
11083SOL    HW238097   2.638   9.795   1.717
11084SOL     OW38098   3.087   9.635   0.449
11084SOL    HW138099   3.152   9.561   0.438
11084SOL    HW238100   3.107   9.685   0.533
11085SOL     OW38101   2.945  10.294   0.087
11085SOL    HW138102   2.922  10.347   0.005
11085SOL    HW238103   3.026  10.238   0.068
11086SOL     OW38104   3.686   9.502   1.227
11086SOL    HW138105   3.682   9.412   1.271
11086SOL    HW238106   3.689   9.491   1.128
11087SOL     OW38107   2.179   9.857   1.280
11087SOL    HW138108   2.217   9.798   1.352
11087SOL    HW238109   2.219   9.831   1.192
11088SOL     OW38110   3.286   9.524   1.112
11088SOL    HW138111   3.338   9.459   1.167
11088SOL    HW238112   3.237   9.587   1.173
11089SOL     OW38113   2.863   9.344   1.154
11089SOL    HW138114   2.800   9.272   1.123
11089SOL    HW238115   2.956   9.308   1.154
11090SOL     OW38116   3.214   9.362   0.168
11090SOL    HW138117   3.249   9.321   0.084
11090SOL    HW238118   3.124   9.324   0.188
11091SOL     OW38119   3.162   9.763   0.691
11091SOL    HW138120   3.103   9.843   0.695
11091SOL    HW238121   3.177   9.728   0.784
11092SOL     OW38122   3.455   9.531   0.882
11092SOL    HW138123   3.371   9.530   0.936
11092SOL    HW238124   3.457   9.614   0.826
11093SOL     OW38125   2.087   9.585   2.858
11093SOL    HW138126   2.122   9.568   2.950
11093SOL    HW238127   1.999   9.540   2.846
11094SOL     OW38128   1.881   9.678   2.509
11094SOL    HW138129   1.799   9.721   2.548
11094SOL    HW238130   1.853   9.605   2.446
11095SOL     OW38131   3.617   9.917   2.093
11095SOL    HW138132   3.605   9.904   1.994
11095SOL    HW238133   3.587   9.836   2.142
11096SOL     OW38134   3.465   9.757   2.599
11096SOL    HW138135   3.391   9.803   2.549
11096SOL    HW238136   3.516   9.825   2.652
11097SOL     OW38137   3.456   9.424   3.342
11097SOL    HW138138   3.438   9.491   3.270
11097SOL    HW238139   3.453   9.470   3.431
11098SOL     OW38140   1.984   9.953   2.425
11098SOL    HW138141   1.939   9.865   2.442
11098SOL    HW238142   1.983  10.007   2.509
11099SOL     OW38143   2.671   9.314   2.364
11099SOL    HW138144   2.711   9.405   2.355
11099SOL    HW238145   2.571   9.322   2.370
11100SOL     OW38146   3.143   9.655   2.806
11100SOL    HW138147   3.057   9.605   2.793
11100SOL    HW238148   3.205   9.601   2.862
11101SOL     OW38149   2.669   9.915   3.327
11101SOL    HW138150   2.622   9.912   3.416
11101SOL    HW238151   2.618   9.860   3.261
11102SOL     OW38152   3.256   9.779   3.536
11102SOL    HW138153   3.236   9.822   3.624
11102SOL    HW238154   3.334   9.717   3.545
11103SOL     OW38155   2.853   9.720   3.104
11103SOL    HW138156   2.776   9.754   3.158
11103SOL    HW238157   2.819   9.669   3.025
11104SOL     OW38158   2.903  10.011   2.291
11104SOL    HW138159   2.929  10.007   2.387
11104SOL    HW238160   2.818   9.960   2.277
11105SOL     OW38161   2.727   9.658   2.057
11105SOL    HW138162   2.786   9.721   2.008
11105SOL    HW238163   2.746   9.564   2.028
11106SOL     OW38164   3.581   9.895   3.693
11106SOL    HW138165   3.555   9.984   3.657
11106SOL    HW238166   3.579   9.827   3.620
11107SOL     OW38167   2.412   9.506   2.747
11107SOL    HW138168   2.407   9.501   2.847
11107SOL    HW238169   2.414   9.602   2.718
11108SOL     OW38170   3.320  10.045   2.590
11108SOL    HW138171   3.315   9.980   2.665
11108SOL    HW238172   3.400  10.104   2.603
11109SOL     OW38173   2.064   9.595   3.360
11109SOL    HW138174   1.984   9.655   3.347
11109SOL    HW238175   2.054   9.546   3.446
11110SOL     OW38176   3.262   9.417   2.288
11110SOL    HW138177   3.238   9.380   2.198
11110SOL    HW238178   3.361   9.433   2.292
11111SOL     OW38179   3.409   9.532   3.591
11111SOL    HW138180   3.404   9.569   3.683
11111SOL    HW238181   3.337   9.463   3.579
11112SOL     OW38182   2.643   9.574   3.611
11112SOL    HW138183   2.710   9.513   3.654
11112SOL    HW238184   2.570   9.593   3.676
11113SOL     OW38185   3.213   9.900   3.295
11113SOL    HW138186   3.241   9.857   3.380
11113SOL    HW238187   3.238   9.996   3.296
11114SOL     OW38188   2.784   9.813   2.761
11114SOL    HW138189   2.759   9.804   2.665
11114SOL    HW238190   2.832   9.731   2.792
11115SOL     OW38191   2.401   9.374   2.374
11115SOL    HW138192   2.320   9.375   2.432
11115SOL    HW238193   2.404   9.457   2.319
11116SOL     OW38194   2.159   9.345   2.033
11116SOL    HW138195   2.208   9.429   2.012
11116SOL    HW238196   2.221   9.280   2.078
11117SOL     OW38197   2.797   9.546   2.342
11117SOL    HW138198   2.749   9.587   2.264
11117SOL    HW238199   2.896   9.544   2.323
11118SOL     OW38200   2.938   9.993   3.326
11118SOL    HW138201   2.858   9.932   3.329
11118SOL    HW238202   3.019   9.940   3.302
11119SOL     OW38203   2.894   9.859   1.878
11119SOL    HW138204   2.853   9.941   1.839
11119SOL    HW238205   2.958   9.885   1.951
11120SOL     OW38206   1.940   9.866   3.248
11120SOL    HW138207   2.032   9.865   3.207
11120SOL    HW238208   1.934   9.940   3.315
11121SOL     OW38209   2.423   9.532   3.009
11121SOL    HW138210   2.461   9.448   3.046
11121SOL    HW238211   2.335   9.551   3.053
11122SOL     OW38212   2.728   9.764   2.504
11122SOL    HW138213   2.696   9.836   2.442
11122SOL    HW238214   2.752   9.683   2.451
11123SOL     OW38215   2.879   9.349   2.615
11123SOL    HW138216   2.807   9.354   2.546
11123SOL    HW238217   2.855   9.280   2.684
11124SOL     OW38218   3.328   9.900   2.854
11124SOL    HW138219   3.298   9.805   2.861
11124SOL    HW238220   3.401   9.916   2.920
11125SOL     OW38221   2.389   9.566   2.190
11125SOL    HW138222   2.416   9.507   2.115
11125SOL    HW238223   2.389   9.661   2.159
11126SOL     OW38224   2.777   9.399   3.264
11126SOL    HW138225   2.802   9.379   3.169
11126SOL    HW238226   2.849   9.455   3.306
11127SOL     OW38227   3.136   9.696   3.124
11127SOL    HW138228   3.157   9.770   3.188
11127SOL    HW238229   3.047   9.713   3.081
11128SOL     OW38230   2.428   9.847   2.727
11128SOL    HW138231   2.440   9.913   2.653
11128SOL    HW238232   2.474   9.881   2.810
11129SOL     OW38233   3.444   9.949   2.334
11129SOL    HW138234   3.413  10.010   2.407
11129SOL    HW238235   3.494  10.001   2.265
11130SOL     OW38236   2.875   9.415   3.632
11130SOL    HW138237   2.881   9.500   3.580
11130SOL    HW238238   2.907   9.339   3.575
11131SOL     OW38239   3.071   9.835   2.137
11131SOL    HW138240   3.084   9.751   2.191
11131SOL    HW238241   3.042   9.909   2.197
11132SOL     OW38242   2.169   9.523   3.093
11132SOL    HW138243   2.146   9.560   3.183
11132SOL    HW238244   2.139   9.428   3.087
11133SOL     OW38245   2.594   9.944   2.926
11133SOL    HW138246   2.653   9.918   2.850
11133SOL    HW238247   2.566  10.040   2.915
11134SOL     OW38248   2.169   9.373   2.480
11134SOL    HW138249   2.158   9.467   2.513
11134SOL    HW238250   2.164   9.310   2.557
11135SOL     OW38251   3.484   9.677   2.236
11135SOL    HW138252   3.486   9.601   2.300
11135SOL    HW238253   3.436   9.754   2.276
11136SOL     OW38254   3.402   9.584   1.987
11136SOL    HW138255   3.341   9.509   2.010
11136SOL    HW238256   3.424   9.636   2.070
11137SOL     OW38257   2.181  10.120   2.811
11137SOL    HW138258   2.274  10.156   2.816
11137SOL    HW238259   2.175  10.035   2.863
11138SOL     OW38260   2.201   9.819   2.868
11138SOL    HW138261   2.149   9.736   2.851
11138SOL    HW238262   2.278   9.824   2.804
11139SOL     OW38263   3.000   9.690   3.540
11139SOL    HW138264   2.955   9.753   3.604
11139SOL    HW238265   3.093   9.721   3.523
11140SOL     OW38266   3.022   9.517   3.339
11140SOL    HW138267   3.022   9.581   3.416
11140SOL    HW238268   3.050   9.565   3.256
11141SOL     OW38269   1.902   9.854   2.976
11141SOL    HW138270   1.987   9.821   2.935
11141SOL    HW238271   1.915   9.869   3.074
11142SOL     OW38272   2.051   9.830   3.584
11142SOL    HW138273   2.110   9.790   3.514
11142SOL    HW238274   1.993   9.901   3.543
11143SOL     OW38275   2.677   9.882   2.187
11143SOL    HW138276   2.684   9.793   2.141
11143SOL    HW238277   2.583   9.916   2.179
11144SOL     OW38278   3.519   9.914   3.068
11144SOL    HW138279   3.481   9.845   3.130
11144SOL    HW238280   3.601   9.878   3.024
11145SOL     OW38281   2.533   9.774   3.131
11145SOL    HW138282   2.499   9.685   3.101
11145SOL    HW238283   2.559   9.828   3.051
11146SOL     OW38284   3.588   9.445   2.385
11146SOL    HW138285   3.661   9.428   2.318
11146SOL    HW238286   3.557   9.358   2.423
11147SOL     OW38287   3.703   9.485   2.825
11147SOL    HW138288   3.742   9.400   2.789
11147SOL    HW238289   3.605   9.487   2.806
11148SOL     OW38290   2.125   9.636   2.582
11148SOL    HW138291   2.046   9.687   2.548
11148SOL    HW238292   2.116   9.621   2.680
11149SOL     OW38293   2.876   9.546   2.833
11149SOL    HW138294   2.868   9.510   2.740
11149SOL    HW238295   2.874   9.470   2.898
11150SOL     OW38296   3.571   9.695   3.243
11150SOL    HW138297   3.644   9.764   3.247
11150SOL    HW238298   3.599   9.620   3.184
11151SOL     OW38299   1.937   9.655   1.895
11151SOL    HW138300   1.845   9.627   1.866
11151SOL    HW238301   1.968   9.732   1.839
11152SOL     OW38302   1.934   9.476   2.180
11152SOL    HW138303   1.917   9.559   2.126
11152SOL    HW238304   2.024   9.439   2.158
11153SOL     OW38305   3.087   9.635   2.311
11153SOL    HW138306   3.152   9.561   2.300
11153SOL    HW238307   3.107   9.685   2.395
11154SOL     OW38308   3.639   9.652   3.504
11154SOL    HW138309   3.622   9.683   3.410
11154SOL    HW238310   3.555   9.615   3.542
11155SOL     OW38311   2.945  10.294   1.949
11155SOL    HW138312   2.922  10.347   1.867
11155SOL    HW238313   3.026  10.238   1.930
11156SOL     OW38314   3.686   9.502   3.089
11156SOL    HW138315   3.682   9.412   3.133
11156SOL    HW238316   3.689   9.491   2.990
11157SOL     OW38317   2.290   9.734   2.382
11157SOL    HW138318   2.320   9.662   2.320
11157SOL    HW238319   2.251   9.694   2.465
11158SOL     OW38320   2.179   9.857   3.142
11158SOL    HW138321   2.217   9.798   3.214
11158SOL    HW238322   2.219   9.831   3.054
11159SOL     OW38323   3.286   9.524   2.974
11159SOL    HW138324   3.338   9.459   3.029
11159SOL    HW238325   3.237   9.587   3.035
11160SOL     OW38326   2.863   9.344   3.016
11160SOL    HW138327   2.800   9.272   2.985
11160SOL    HW238328   2.956   9.308   3.016
11161SOL     OW38329   3.214   9.362   2.030
11161SOL    HW138330   3.249   9.321   1.946
11161SOL    HW238331   3.124   9.324   2.050
11162SOL     OW38332   3.162   9.763   2.553
11162SOL    HW138333   3.103   9.843   2.557
11162SOL    HW238334   3.177   9.728   2.646
11163SOL     OW38335   3.455   9.531   2.744
11163SOL    HW138336   3.371   9.530   2.798
11163SOL    HW238337   3.457   9.614   2.688
11164SOL     OW38338   2.087   9.585   4.720
11164SOL    HW138339   2.122   9.568   4.812
11164SOL    HW238340   1.999   9.540   4.708
11165SOL     OW38341   1.881   9.678   4.371
11165SOL    HW138342   1.799   9.721   4.410
11165SOL    HW238343   1.853   9.605   4.308
11166SOL     OW38344   3.617   9.917   3.955
11166SOL    HW138345   3.605   9.904   3.856
11166SOL    HW238346   3.587   9.836   4.004
11167SOL     OW38347   3.465   9.757   4.461
11167SOL    HW138348   3.391   9.803   4.411
11167SOL    HW238349   3.516   9.825   4.514
11168SOL     OW38350   3.456   9.424   5.204
11168SOL    HW138351   3.438   9.491   5.132
11168SOL    HW238352   3.453   9.470   5.293
11169SOL     OW38353   2.671   9.314   4.226
11169SOL    HW138354   2.711   9.405   4.217
11169SOL    HW238355   2.571   9.322   4.232
11170SOL     OW38356   2.179   9.561   5.525
11170SOL    HW138357   2.250   9.632   5.531
11170SOL    HW238358   2.091   9.600   5.553
11171SOL     OW38359   3.143   9.655   4.668
11171SOL    HW138360   3.057   9.605   4.655
11171SOL    HW238361   3.205   9.601   4.724
11172SOL     OW38362   2.669   9.915   5.189
11172SOL    HW138363   2.622   9.912   5.278
11172SOL    HW238364   2.618   9.860   5.123
11173SOL     OW38365   3.256   9.779   5.398
11173SOL    HW138366   3.236   9.822   5.486
11173SOL    HW238367   3.334   9.717   5.407
11174SOL     OW38368   2.853   9.720   4.966
11174SOL    HW138369   2.776   9.754   5.020
11174SOL    HW238370   2.819   9.669   4.887
11175SOL     OW38371   3.581   9.895   5.555
11175SOL    HW138372   3.555   9.984   5.519
11175SOL    HW238373   3.579   9.827   5.482
11176SOL     OW38374   2.412   9.506   4.609
11176SOL    HW138375   2.407   9.501   4.709
11176SOL    HW238376   2.414   9.602   4.580
11177SOL     OW38377   2.064   9.595   5.222
11177SOL    HW138378   1.984   9.655   5.209
11177SOL    HW238379   2.054   9.546   5.308
11178SOL     OW38380   3.262   9.417   4.150
11178SOL    HW138381   3.238   9.380   4.060
11178SOL    HW238382   3.361   9.433   4.154
11179SOL     OW38383   3.409   9.532   5.453
11179SOL    HW138384   3.404   9.569   5.545
11179SOL    HW238385   3.337   9.463   5.441
11180SOL     OW38386   2.476   9.432   3.841
11180SOL    HW138387   2.574   9.410   3.848
11180SOL    HW238388   2.445   9.415   3.748
11181SOL     OW38389   2.643   9.574   5.473
11181SOL    HW138390   2.710   9.513   5.516
11181SOL    HW238391   2.570   9.593   5.538
11182SOL     OW38392   3.213   9.900   5.157
11182SOL    HW138393   3.241   9.857   5.242
11182SOL    HW238394   3.238   9.996   5.158
11183SOL     OW38395   2.784   9.813   4.623
11183SOL    HW138396   2.759   9.804   4.527
11183SOL    HW238397   2.832   9.731   4.654
11184SOL     OW38398   2.401   9.374   4.236
11184SOL    HW138399   2.320   9.375   4.294
11184SOL    HW238400   2.404   9.457   4.181
11185SOL     OW38401   2.159   9.345   3.895
11185SOL    HW138402   2.208   9.429   3.874
11185SOL    HW238403   2.221   9.280   3.940
11186SOL     OW38404   2.938   9.993   5.188
11186SOL    HW138405   2.858   9.932   5.191
11186SOL    HW238406   3.019   9.940   5.164
11187SOL     OW38407   1.940   9.866   5.110
11187SOL    HW138408   2.032   9.865   5.069
11187SOL    HW238409   1.934   9.940   5.177
11188SOL     OW38410   2.728   9.764   4.366
11188SOL    HW138411   2.696   9.836   4.304
11188SOL    HW238412   2.752   9.683   4.313
11189SOL     OW38413   2.879   9.349   4.477
11189SOL    HW138414   2.807   9.354   4.408
11189SOL    HW238415   2.855   9.280   4.546
11190SOL     OW38416   3.328   9.900   4.716
11190SOL    HW138417   3.298   9.805   4.723
11190SOL    HW238418   3.401   9.916   4.782
11191SOL     OW38419   2.389   9.566   4.052
11191SOL    HW138420   2.416   9.507   3.977
11191SOL    HW238421   2.389   9.661   4.021
11192SOL     OW38422   2.777   9.399   5.126
11192SOL    HW138423   2.802   9.379   5.031
11192SOL    HW238424   2.849   9.455   5.168
11193SOL     OW38425   3.136   9.696   4.986
11193SOL    HW138426   3.157   9.770   5.050
11193SOL    HW238427   3.047   9.713   4.943
11194SOL     OW38428   2.428   9.847   4.589
11194SOL    HW138429   2.440   9.913   4.515
11194SOL    HW238430   2.474   9.881   4.672
11195SOL     OW38431   3.444   9.949   4.196
11195SOL    HW138432   3.413  10.010   4.269
11195SOL    HW238433   3.494  10.001   4.127
11196SOL     OW38434   2.875   9.415   5.494
11196SOL    HW138435   2.881   9.500   5.442
11196SOL    HW238436   2.907   9.339   5.437
11197SOL     OW38437   3.071   9.835   3.999
11197SOL    HW138438   3.084   9.751   4.053
11197SOL    HW238439   3.042   9.909   4.059
11198SOL     OW38440   2.169   9.523   4.955
11198SOL    HW138441   2.146   9.560   5.045
11198SOL    HW238442   2.139   9.428   4.949
11199SOL     OW38443   2.594   9.944   4.788
11199SOL    HW138444   2.653   9.918   4.712
11199SOL    HW238445   2.566  10.040   4.777
11200SOL     OW38446   2.169   9.373   4.342
11200SOL    HW138447   2.158   9.467   4.375
11200SOL    HW238448   2.164   9.310   4.419
11201SOL     OW38449   3.484   9.677   4.098
11201SOL    HW138450   3.486   9.601   4.162
11201SOL    HW238451   3.436   9.754   4.138
11202SOL     OW38452   3.402   9.584   3.849
11202SOL    HW138453   3.341   9.509   3.872
11202SOL    HW238454   3.424   9.636   3.932
11203SOL     OW38455   2.201   9.819   4.730
11203SOL    HW138456   2.149   9.736   4.713
11203SOL    HW238457   2.278   9.824   4.666
11204SOL     OW38458   3.000   9.690   5.402
11204SOL    HW138459   2.955   9.753   5.466
11204SOL    HW238460   3.093   9.721   5.385
11205SOL     OW38461   3.022   9.517   5.201
11205SOL    HW138462   3.022   9.581   5.278
11205SOL    HW238463   3.050   9.565   5.118
11206SOL     OW38464   1.902   9.854   4.838
11206SOL    HW138465   1.987   9.821   4.797
11206SOL    HW238466   1.915   9.869   4.936
11207SOL     OW38467   2.051   9.830   5.446
11207SOL    HW138468   2.110   9.790   5.376
11207SOL    HW238469   1.993   9.901   5.405
11208SOL     OW38470   3.519   9.914   4.930
11208SOL    HW138471   3.481   9.845   4.992
11208SOL    HW238472   3.601   9.878   4.886
11209SOL     OW38473   3.588   9.445   4.247
11209SOL    HW138474   3.661   9.428   4.180
11209SOL    HW238475   3.557   9.358   4.285
11210SOL     OW38476   3.703   9.485   4.687
11210SOL    HW138477   3.742   9.400   4.651
11210SOL    HW238478   3.605   9.487   4.668
11211SOL     OW38479   2.125   9.636   4.444
11211SOL    HW138480   2.046   9.687   4.410
11211SOL    HW238481   2.116   9.621   4.542
11212SOL     OW38482   2.876   9.546   4.695
11212SOL    HW138483   2.868   9.510   4.602
11212SOL    HW238484   2.874   9.470   4.760
11213SOL     OW38485   3.571   9.695   5.105
11213SOL    HW138486   3.644   9.764   5.109
11213SOL    HW238487   3.599   9.620   5.046
11214SOL     OW38488   1.937   9.655   3.757
11214SOL    HW138489   1.845   9.627   3.728
11214SOL    HW238490   1.968   9.732   3.701
11215SOL     OW38491   1.934   9.476   4.042
11215SOL    HW138492   1.917   9.559   3.988
11215SOL    HW238493   2.024   9.439   4.020
11216SOL     OW38494   2.578   9.875   5.432
11216SOL    HW138495   2.597   9.940   5.506
11216SOL    HW238496   2.638   9.795   5.441
11217SOL     OW38497   3.087   9.635   4.173
11217SOL    HW138498   3.152   9.561   4.162
11217SOL    HW238499   3.107   9.685   4.257
11218SOL     OW38500   3.639   9.652   5.366
11218SOL    HW138501   3.622   9.683   5.272
11218SOL    HW238502   3.555   9.615   5.404
11219SOL     OW38503   2.945  10.294   3.811
11219SOL    HW138504   2.922  10.347   3.729
11219SOL    HW238505   3.026  10.238   3.792
11220SOL     OW38506   3.686   9.502   4.951
11220SOL    HW138507   3.682   9.412   4.995
11220SOL    HW238508   3.689   9.491   4.852
11221SOL     OW38509   2.290   9.734   4.244
11221SOL    HW138510   2.320   9.662   4.182
11221SOL    HW238511   2.251   9.694   4.327
11222SOL     OW38512   2.179   9.857   5.004
11222SOL    HW138513   2.217   9.798   5.076
11222SOL    HW238514   2.219   9.831   4.916
11223SOL     OW38515   3.286   9.524   4.836
11223SOL    HW138516   3.338   9.459   4.891
11223SOL    HW238517   3.237   9.587   4.897
11224SOL     OW38518   2.863   9.344   4.878
11224SOL    HW138519   2.800   9.272   4.847
11224SOL    HW238520   2.956   9.308   4.878
11225SOL     OW38521   3.214   9.362   3.892
11225SOL    HW138522   3.249   9.321   3.808
11225SOL    HW238523   3.124   9.324   3.912
11226SOL     OW38524   3.162   9.763   4.415
11226SOL    HW138525   3.103   9.843   4.419
11226SOL    HW238526   3.177   9.728   4.508
11227SOL     OW38527   3.455   9.531   4.606
11227SOL    HW138528   3.371   9.530   4.660
11227SOL    HW238529   3.457   9.614   4.550
11228SOL     OW38530   2.087   9.585   6.582
11228SOL    HW138531   2.122   9.568   6.674
11228SOL    HW238532   1.999   9.540   6.570
11229SOL     OW38533   1.881   9.678   6.233
11229SOL    HW138534   1.799   9.721   6.272
11229SOL    HW238535   1.853   9.605   6.170
11230SOL     OW38536   3.617   9.917   5.817
11230SOL    HW138537   3.605   9.904   5.718
11230SOL    HW238538   3.587   9.836   5.866
11231SOL     OW38539   2.300   9.702   7.085
11231SOL    HW138540   2.382   9.646   7.094
11231SOL    HW238541   2.219   9.644   7.089
11232SOL     OW38542   3.465   9.757   6.323
11232SOL    HW138543   3.391   9.803   6.273
11232SOL    HW238544   3.516   9.825   6.376
11233SOL     OW38545   3.456   9.424   7.066
11233SOL    HW138546   3.438   9.491   6.994
11233SOL    HW238547   3.453   9.470   7.155
11234SOL     OW38548   1.984   9.953   6.149
11234SOL    HW138549   1.939   9.865   6.166
11234SOL    HW238550   1.983  10.007   6.233
11235SOL     OW38551   2.671   9.314   6.088
11235SOL    HW138552   2.711   9.405   6.079
11235SOL    HW238553   2.571   9.322   6.094
11236SOL     OW38554   2.179   9.561   7.387
11236SOL    HW138555   2.250   9.632   7.393
11236SOL    HW238556   2.091   9.600   7.415
11237SOL     OW38557   3.143   9.655   6.530
11237SOL    HW138558   3.057   9.605   6.517
11237SOL    HW238559   3.205   9.601   6.586
11238SOL     OW38560   2.669   9.915   7.051
11238SOL    HW138561   2.622   9.912   7.140
11238SOL    HW238562   2.618   9.860   6.985
11239SOL     OW38563   3.256   9.779   7.260
11239SOL    HW138564   3.236   9.822   7.348
11239SOL    HW238565   3.334   9.717   7.269
11240SOL     OW38566   2.853   9.720   6.828
11240SOL    HW138567   2.776   9.754   6.882
11240SOL    HW238568   2.819   9.669   6.749
11241SOL     OW38569   2.903  10.011   6.015
11241SOL    HW138570   2.929  10.007   6.111
11241SOL    HW238571   2.818   9.960   6.001
11242SOL     OW38572   2.727   9.658   5.781
11242SOL    HW138573   2.786   9.721   5.732
11242SOL    HW238574   2.746   9.564   5.752
11243SOL     OW38575   3.581   9.895   7.417
11243SOL    HW138576   3.555   9.984   7.381
11243SOL    HW238577   3.579   9.827   7.344
11244SOL     OW38578   2.412   9.506   6.471
11244SOL    HW138579   2.407   9.501   6.571
11244SOL    HW238580   2.414   9.602   6.442
11245SOL     OW38581   3.320  10.045   6.314
11245SOL    HW138582   3.315   9.980   6.389
11245SOL    HW238583   3.400  10.104   6.327
11246SOL     OW38584   2.064   9.595   7.084
11246SOL    HW138585   1.984   9.655   7.071
11246SOL    HW238586   2.054   9.546   7.170
11247SOL     OW38587   3.262   9.417   6.012
11247SOL    HW138588   3.238   9.380   5.922
11247SOL    HW238589   3.361   9.433   6.016
11248SOL     OW38590   3.409   9.532   7.315
11248SOL    HW138591   3.404   9.569   7.407
11248SOL    HW238592   3.337   9.463   7.303
11249SOL     OW38593   2.476   9.432   5.703
11249SOL    HW138594   2.574   9.410   5.710
11249SOL    HW238595   2.445   9.415   5.610
11250SOL     OW38596   2.643   9.574   7.335
11250SOL    HW138597   2.710   9.513   7.378
11250SOL    HW238598   2.570   9.593   7.400
11251SOL     OW38599   3.213   9.900   7.019
11251SOL    HW138600   3.241   9.857   7.104
11251SOL    HW238601   3.238   9.996   7.020
11252SOL     OW38602   2.784   9.813   6.485
11252SOL    HW138603   2.759   9.804   6.389
11252SOL    HW238604   2.832   9.731   6.516
11253SOL     OW38605   2.401   9.374   6.098
11253SOL    HW138606   2.320   9.375   6.156
11253SOL    HW238607   2.404   9.457   6.043
11254SOL     OW38608   2.159   9.345   5.757
11254SOL    HW138609   2.208   9.429   5.736
11254SOL    HW238610   2.221   9.280   5.802
11255SOL     OW38611   2.797   9.546   6.066
11255SOL    HW138612   2.749   9.587   5.988
11255SOL    HW238613   2.896   9.544   6.047
11256SOL     OW38614   2.938   9.993   7.050
11256SOL    HW138615   2.858   9.932   7.053
11256SOL    HW238616   3.019   9.940   7.026
11257SOL     OW38617   2.894   9.859   5.602
11257SOL    HW138618   2.853   9.941   5.563
11257SOL    HW238619   2.958   9.885   5.675
11258SOL     OW38620   1.940   9.866   6.972
11258SOL    HW138621   2.032   9.865   6.931
11258SOL    HW238622   1.934   9.940   7.039
11259SOL     OW38623   2.728   9.764   6.228
11259SOL    HW138624   2.696   9.836   6.166
11259SOL    HW238625   2.752   9.683   6.175
11260SOL     OW38626   2.879   9.349   6.339
11260SOL    HW138627   2.807   9.354   6.270
11260SOL    HW238628   2.855   9.280   6.408
11261SOL     OW38629   3.328   9.900   6.578
11261SOL    HW138630   3.298   9.805   6.585
11261SOL    HW238631   3.401   9.916   6.644
11262SOL     OW38632   2.389   9.566   5.914
11262SOL    HW138633   2.416   9.507   5.839
11262SOL    HW238634   2.389   9.661   5.883
11263SOL     OW38635   2.777   9.399   6.988
11263SOL    HW138636   2.802   9.379   6.893
11263SOL    HW238637   2.849   9.455   7.030
11264SOL     OW38638   3.136   9.696   6.848
11264SOL    HW138639   3.157   9.770   6.912
11264SOL    HW238640   3.047   9.713   6.805
11265SOL     OW38641   3.444   9.949   6.058
11265SOL    HW138642   3.413  10.010   6.131
11265SOL    HW238643   3.494  10.001   5.989
11266SOL     OW38644   2.875   9.415   7.356
11266SOL    HW138645   2.881   9.500   7.304
11266SOL    HW238646   2.907   9.339   7.299
11267SOL     OW38647   2.366   9.360   7.326
11267SOL    HW138648   2.324   9.303   7.256
11267SOL    HW238649   2.300   9.429   7.358
11268SOL     OW38650   3.071   9.835   5.861
11268SOL    HW138651   3.084   9.751   5.915
11268SOL    HW238652   3.042   9.909   5.921
11269SOL     OW38653   2.169   9.523   6.817
11269SOL    HW138654   2.146   9.560   6.907
11269SOL    HW238655   2.139   9.428   6.811
11270SOL     OW38656   2.169   9.373   6.204
11270SOL    HW138657   2.158   9.467   6.237
11270SOL    HW238658   2.164   9.310   6.281
11271SOL     OW38659   3.484   9.677   5.960
11271SOL    HW138660   3.486   9.601   6.024
11271SOL    HW238661   3.436   9.754   6.000
11272SOL     OW38662   3.402   9.584   5.711
11272SOL    HW138663   3.341   9.509   5.734
11272SOL    HW238664   3.424   9.636   5.794
11273SOL     OW38665   2.181  10.120   6.535
11273SOL    HW138666   2.274  10.156   6.540
11273SOL    HW238667   2.175  10.035   6.587
11274SOL     OW38668   2.201   9.819   6.592
11274SOL    HW138669   2.149   9.736   6.575
11274SOL    HW238670   2.278   9.824   6.528
11275SOL     OW38671   3.000   9.690   7.264
11275SOL    HW138672   2.955   9.753   7.328
11275SOL    HW238673   3.093   9.721   7.247
11276SOL     OW38674   3.022   9.517   7.063
11276SOL    HW138675   3.022   9.581   7.140
11276SOL    HW238676   3.050   9.565   6.980
11277SOL     OW38677   1.902   9.854   6.700
11277SOL    HW138678   1.987   9.821   6.659
11277SOL    HW238679   1.915   9.869   6.798
11278SOL     OW38680   2.051   9.830   7.308
11278SOL    HW138681   2.110   9.790   7.238
11278SOL    HW238682   1.993   9.901   7.267
11279SOL     OW38683   2.677   9.882   5.911
11279SOL    HW138684   2.684   9.793   5.865
11279SOL    HW238685   2.583   9.916   5.903
11280SOL     OW38686   3.519   9.914   6.792
11280SOL    HW138687   3.481   9.845   6.854
11280SOL    HW238688   3.601   9.878   6.748
11281SOL     OW38689   3.588   9.445   6.109
11281SOL    HW138690   3.661   9.428   6.042
11281SOL    HW238691   3.557   9.358   6.147
11282SOL     OW38692   3.703   9.485   6.549
11282SOL    HW138693   3.742   9.400   6.513
11282SOL    HW238694   3.605   9.487   6.530
11283SOL     OW38695   2.125   9.636   6.306
11283SOL    HW138696   2.046   9.687   6.272
11283SOL    HW238697   2.116   9.621   6.404
11284SOL     OW38698   2.876   9.546   6.557
11284SOL    HW138699   2.868   9.510   6.464
11284SOL    HW238700   2.874   9.470   6.622
11285SOL     OW38701   3.571   9.695   6.967
11285SOL    HW138702   3.644   9.764   6.971
11285SOL    HW238703   3.599   9.620   6.908
11286SOL     OW38704   2.534   9.513   7.075
11286SOL    HW138705   2.624   9.497   7.035
11286SOL    HW238706   2.542   9.518   7.174
11287SOL     OW38707   1.937   9.655   5.619
11287SOL    HW138708   1.845   9.627   5.590
11287SOL    HW238709   1.968   9.732   5.563
11288SOL     OW38710   1.934   9.476   5.904
11288SOL    HW138711   1.917   9.559   5.850
11288SOL    HW238712   2.024   9.439   5.882
11289SOL     OW38713   2.578   9.875   7.294
11289SOL    HW138714   2.597   9.940   7.368
11289SOL    HW238715   2.638   9.795   7.303
11290SOL     OW38716   3.087   9.635   6.035
11290SOL    HW138717   3.152   9.561   6.024
11290SOL    HW238718   3.107   9.685   6.119
11291SOL     OW38719   3.639   9.652   7.228
11291SOL    HW138720   3.622   9.683   7.134
11291SOL    HW238721   3.555   9.615   7.266
11292SOL     OW38722   2.945  10.294   5.673
11292SOL    HW138723   2.922  10.347   5.591
11292SOL    HW238724   3.026  10.238   5.654
11293SOL     OW38725   3.686   9.502   6.813
11293SOL    HW138726   3.682   9.412   6.857
11293SOL    HW238727   3.689   9.491   6.714
11294SOL     OW38728   2.290   9.734   6.106
11294SOL    HW138729   2.320   9.662   6.044
11294SOL    HW238730   2.251   9.694   6.189
11295SOL     OW38731   2.179   9.857   6.866
11295SOL    HW138732   2.217   9.798   6.938
11295SOL    HW238733   2.219   9.831   6.778
11296SOL     OW38734   3.286   9.524   6.698
11296SOL    HW138735   3.338   9.459   6.753
11296SOL    HW238736   3.237   9.587   6.759
11297SOL     OW38737   2.863   9.344   6.740
11297SOL    HW138738   2.800   9.272   6.709
11297SOL    HW238739   2.956   9.308   6.740
11298SOL     OW38740   3.214   9.362   5.754
11298SOL    HW138741   3.249   9.321   5.670
11298SOL    HW238742   3.124   9.324   5.774
11299SOL     OW38743   3.162   9.763   6.277
11299SOL    HW138744   3.103   9.843   6.281
11299SOL    HW238745   3.177   9.728   6.370
11300SOL     OW38746   3.455   9.531   6.468
11300SOL    HW138747   3.371   9.530   6.522
11300SOL    HW238748   3.457   9.614   6.412
11301SOL     OW38749   2.087   9.585   8.444
11301SOL    HW138750   2.122   9.568   8.536
11301SOL    HW238751   1.999   9.540   8.432
11302SOL     OW38752   1.881   9.678   8.095
11302SOL    HW138753   1.799   9.721   8.134
11302SOL    HW238754   1.853   9.605   8.032
11303SOL     OW38755   3.617   9.917   7.679
11303SOL    HW138756   3.605   9.904   7.580
11303SOL    HW238757   3.587   9.836   7.728
11304SOL     OW38758   2.300   9.702   8.947
11304SOL    HW138759   2.382   9.646   8.956
11304SOL    HW238760   2.219   9.644   8.951
11305SOL     OW38761   3.465   9.757   8.185
11305SOL    HW138762   3.391   9.803   8.135
11305SOL    HW238763   3.516   9.825   8.238
11306SOL     OW38764   1.984   9.953   8.011
11306SOL    HW138765   1.939   9.865   8.028
11306SOL    HW238766   1.983  10.007   8.095
11307SOL     OW38767   2.671   9.314   7.950
11307SOL    HW138768   2.711   9.405   7.941
11307SOL    HW238769   2.571   9.322   7.956
11308SOL     OW38770   2.179   9.561   9.249
11308SOL    HW138771   2.250   9.632   9.255
11308SOL    HW238772   2.091   9.600   9.277
11309SOL     OW38773   2.669   9.915   8.913
11309SOL    HW138774   2.622   9.912   9.002
11309SOL    HW238775   2.618   9.860   8.847
11310SOL     OW38776   3.256   9.779   9.122
11310SOL    HW138777   3.236   9.822   9.210
11310SOL    HW238778   3.334   9.717   9.131
11311SOL     OW38779   2.853   9.720   8.690
11311SOL    HW138780   2.776   9.754   8.744
11311SOL    HW238781   2.819   9.669   8.611
11312SOL     OW38782   2.903  10.011   7.877
11312SOL    HW138783   2.929  10.007   7.973
11312SOL    HW238784   2.818   9.960   7.863
11313SOL     OW38785   2.727   9.658   7.643
11313SOL    HW138786   2.786   9.721   7.594
11313SOL    HW238787   2.746   9.564   7.614
11314SOL     OW38788   3.581   9.895   9.279
11314SOL    HW138789   3.555   9.984   9.243
11314SOL    HW238790   3.579   9.827   9.206
11315SOL     OW38791   2.412   9.506   8.333
11315SOL    HW138792   2.407   9.501   8.433
11315SOL    HW238793   2.414   9.602   8.304
11316SOL     OW38794   3.320  10.045   8.176
11316SOL    HW138795   3.315   9.980   8.251
11316SOL    HW238796   3.400  10.104   8.189
11317SOL     OW38797   2.064   9.595   8.946
11317SOL    HW138798   1.984   9.655   8.933
11317SOL    HW238799   2.054   9.546   9.032
11318SOL     OW38800   3.262   9.417   7.874
11318SOL    HW138801   3.238   9.380   7.784
11318SOL    HW238802   3.361   9.433   7.878
11319SOL     OW38803   2.476   9.432   7.565
11319SOL    HW138804   2.574   9.410   7.572
11319SOL    HW238805   2.445   9.415   7.472
11320SOL     OW38806   2.643   9.574   9.197
11320SOL    HW138807   2.710   9.513   9.240
11320SOL    HW238808   2.570   9.593   9.262
11321SOL     OW38809   3.213   9.900   8.881
11321SOL    HW138810   3.241   9.857   8.966
11321SOL    HW238811   3.238   9.996   8.882
11322SOL     OW38812   2.401   9.374   7.960
11322SOL    HW138813   2.320   9.375   8.018
11322SOL    HW238814   2.404   9.457   7.905
11323SOL     OW38815   2.159   9.345   7.619
11323SOL    HW138816   2.208   9.429   7.598
11323SOL    HW238817   2.221   9.280   7.664
11324SOL     OW38818   2.938   9.993   8.912
11324SOL    HW138819   2.858   9.932   8.915
11324SOL    HW238820   3.019   9.940   8.888
11325SOL     OW38821   2.894   9.859   7.464
11325SOL    HW138822   2.853   9.941   7.425
11325SOL    HW238823   2.958   9.885   7.537
11326SOL     OW38824   1.940   9.866   8.834
11326SOL    HW138825   2.032   9.865   8.793
11326SOL    HW238826   1.934   9.940   8.901
11327SOL     OW38827   2.423   9.532   8.595
11327SOL    HW138828   2.461   9.448   8.632
11327SOL    HW238829   2.335   9.551   8.639
11328SOL     OW38830   3.328   9.900   8.440
11328SOL    HW138831   3.298   9.805   8.447
11328SOL    HW238832   3.401   9.916   8.506
11329SOL     OW38833   2.389   9.566   7.776
11329SOL    HW138834   2.416   9.507   7.701
11329SOL    HW238835   2.389   9.661   7.745
11330SOL     OW38836   2.777   9.399   8.850
11330SOL    HW138837   2.802   9.379   8.755
11330SOL    HW238838   2.849   9.455   8.892
11331SOL     OW38839   3.136   9.696   8.710
11331SOL    HW138840   3.157   9.770   8.774
11331SOL    HW238841   3.047   9.713   8.667
11332SOL     OW38842   2.428   9.847   8.313
11332SOL    HW138843   2.440   9.913   8.239
11332SOL    HW238844   2.474   9.881   8.396
11333SOL     OW38845   3.444   9.949   7.920
11333SOL    HW138846   3.413  10.010   7.993
11333SOL    HW238847   3.494  10.001   7.851
11334SOL     OW38848   2.875   9.415   9.218
11334SOL    HW138849   2.881   9.500   9.166
11334SOL    HW238850   2.907   9.339   9.161
11335SOL     OW38851   2.366   9.360   9.188
11335SOL    HW138852   2.324   9.303   9.118
11335SOL    HW238853   2.300   9.429   9.220
11336SOL     OW38854   3.071   9.835   7.723
11336SOL    HW138855   3.084   9.751   7.777
11336SOL    HW238856   3.042   9.909   7.783
11337SOL     OW38857   2.169   9.523   8.679
11337SOL    HW138858   2.146   9.560   8.769
11337SOL    HW238859   2.139   9.428   8.673
11338SOL     OW38860   2.594   9.944   8.512
11338SOL    HW138861   2.653   9.918   8.436
11338SOL    HW238862   2.566  10.040   8.501
11339SOL     OW38863   3.484   9.677   7.822
11339SOL    HW138864   3.486   9.601   7.886
11339SOL    HW238865   3.436   9.754   7.862
11340SOL     OW38866   3.402   9.584   7.573
11340SOL    HW138867   3.341   9.509   7.596
11340SOL    HW238868   3.424   9.636   7.656
11341SOL     OW38869   2.181  10.120   8.397
11341SOL    HW138870   2.274  10.156   8.402
11341SOL    HW238871   2.175  10.035   8.449
11342SOL     OW38872   2.201   9.819   8.454
11342SOL    HW138873   2.149   9.736   8.437
11342SOL    HW238874   2.278   9.824   8.390
11343SOL     OW38875   3.000   9.690   9.126
11343SOL    HW138876   2.955   9.753   9.190
11343SOL    HW238877   3.093   9.721   9.109
11344SOL     OW38878   3.022   9.517   8.925
11344SOL    HW138879   3.022   9.581   9.002
11344SOL    HW238880   3.050   9.565   8.842
11345SOL     OW38881   1.902   9.854   8.562
11345SOL    HW138882   1.987   9.821   8.521
11345SOL    HW238883   1.915   9.869   8.660
11346SOL     OW38884   2.051   9.830   9.170
11346SOL    HW138885   2.110   9.790   9.100
11346SOL    HW238886   1.993   9.901   9.129
11347SOL     OW38887   2.677   9.882   7.773
11347SOL    HW138888   2.684   9.793   7.727
11347SOL    HW238889   2.583   9.916   7.765
11348SOL     OW38890   3.519   9.914   8.654
11348SOL    HW138891   3.481   9.845   8.716
11348SOL    HW238892   3.601   9.878   8.610
11349SOL     OW38893   2.533   9.774   8.717
11349SOL    HW138894   2.499   9.685   8.687
11349SOL    HW238895   2.559   9.828   8.637
11350SOL     OW38896   3.588   9.445   7.971
11350SOL    HW138897   3.661   9.428   7.904
11350SOL    HW238898   3.557   9.358   8.009
11351SOL     OW38899   3.703   9.485   8.411
11351SOL    HW138900   3.742   9.400   8.375
11351SOL    HW238901   3.605   9.487   8.392
11352SOL     OW38902   2.125   9.636   8.168
11352SOL    HW138903   2.046   9.687   8.134
11352SOL    HW238904   2.116   9.621   8.266
11353SOL     OW38905   2.876   9.546   8.419
11353SOL    HW138906   2.868   9.510   8.326
11353SOL    HW238907   2.874   9.470   8.484
11354SOL     OW38908   3.571   9.695   8.829
11354SOL    HW138909   3.644   9.764   8.833
11354SOL    HW238910   3.599   9.620   8.770
11355SOL     OW38911   2.534   9.513   8.937
11355SOL    HW138912   2.624   9.497   8.897
11355SOL    HW238913   2.542   9.518   9.036
11356SOL     OW38914   1.937   9.655   7.481
11356SOL    HW138915   1.845   9.627   7.452
11356SOL    HW238916   1.968   9.732   7.425
11357SOL     OW38917   1.934   9.476   7.766
11357SOL    HW138918   1.917   9.559   7.712
11357SOL    HW238919   2.024   9.439   7.744
11358SOL     OW38920   2.578   9.875   9.156
11358SOL    HW138921   2.597   9.940   9.230
11358SOL    HW238922   2.638   9.795   9.165
11359SOL     OW38923   2.945  10.294   7.535
11359SOL    HW138924   2.922  10.347   7.453
11359SOL    HW238925   3.026  10.238   7.516
11360SOL     OW38926   3.686   9.502   8.675
11360SOL    HW138927   3.682   9.412   8.719
11360SOL    HW238928   3.689   9.491   8.576
11361SOL     OW38929   2.290   9.734   7.968
11361SOL    HW138930   2.320   9.662   7.906
11361SOL    HW238931   2.251   9.694   8.051
11362SOL     OW38932   2.179   9.857   8.728
11362SOL    HW138933   2.217   9.798   8.800
11362SOL    HW238934   2.219   9.831   8.640
11363SOL     OW38935   3.214   9.362   7.616
11363SOL    HW138936   3.249   9.321   7.532
11363SOL    HW238937   3.124   9.324   7.636
11364SOL     OW38938   3.162   9.763   8.139
11364SOL    HW138939   3.103   9.843   8.143
11364SOL    HW238940   3.177   9.728   8.232
11365SOL     OW38941   3.455   9.531   8.330
11365SOL    HW138942   3.371   9.530   8.384
11365SOL    HW238943   3.457   9.614   8.274
11366SOL     OW38944   3.617   9.917   9.541
11366SOL    HW138945   3.605   9.904   9.442
11366SOL    HW238946   3.587   9.836   9.590
11367SOL     OW38947   1.984   9.953   9.873
11367SOL    HW138948   1.939   9.865   9.890
11367SOL    HW238949   1.983  10.007   9.957
11368SOL     OW38950   2.671   9.314   9.812
11368SOL    HW138951   2.711   9.405   9.803
11368SOL    HW238952   2.571   9.322   9.818
11369SOL     OW38953   2.903  10.011   9.739
11369SOL    HW138954   2.929  10.007   9.835
11369SOL    HW238955   2.818   9.960   9.725
11370SOL     OW38956   2.727   9.658   9.505
11370SOL    HW138957   2.786   9.721   9.456
11370SOL    HW238958   2.746   9.564   9.476
11371SOL     OW38959   3.262   9.417   9.736
11371SOL    HW138960   3.238   9.380   9.646
11371SOL    HW238961   3.361   9.433   9.740
11372SOL     OW38962   2.476   9.432   9.427
11372SOL    HW138963   2.574   9.410   9.434
11372SOL    HW238964   2.445   9.415   9.334
11373SOL     OW38965   2.401   9.374   9.822
11373SOL    HW138966   2.320   9.375   9.880
11373SOL    HW238967   2.404   9.457   9.767
11374SOL     OW38968   2.159   9.345   9.481
11374SOL    HW138969   2.208   9.429   9.460
11374SOL    HW238970   2.221   9.280   9.526
11375SOL     OW38971   2.797   9.546   9.790
11375SOL    HW138972   2.749   9.587   9.712
11375SOL    HW238973   2.896   9.544   9.771
11376SOL     OW38974   2.894   9.859   9.326
11376SOL    HW138975   2.853   9.941   9.287
11376SOL    HW238976   2.958   9.885   9.399
11377SOL     OW38977   2.728   9.764   9.952
11377SOL    HW138978   2.696   9.836   9.890
11377SOL    HW238979   2.752   9.683   9.899
11378SOL     OW38980   2.389   9.566   9.638
11378SOL    HW138981   2.416   9.507   9.563
11378SOL    HW238982   2.389   9.661   9.607
11379SOL     OW38983   3.444   9.949   9.782
11379SOL    HW138984   3.413  10.010   9.855
11379SOL    HW238985   3.494  10.001   9.713
11380SOL     OW38986   3.071   9.835   9.585
11380SOL    HW138987   3.084   9.751   9.639
11380SOL    HW238988   3.042   9.909   9.645
11381SOL     OW38989   2.169   9.373   9.928
11381SOL    HW138990   2.158   9.467   9.961
11381SOL    HW238991   2.164   9.310  10.005
11382SOL     OW38992   3.484   9.677   9.684
11382SOL    HW138993   3.486   9.601   9.748
11382SOL    HW238994   3.436   9.754   9.724
11383SOL     OW38995   3.402   9.584   9.435
11383SOL    HW138996   3.341   9.509   9.458
11383SOL    HW238997   3.424   9.636   9.518
11384SOL     OW38998   2.677   9.882   9.635
11384SOL    HW138999   2.684   9.793   9.589
11384SOL    HW239000   2.583   9.916   9.627
11385SOL     OW39001   3.588   9.445   9.833
11385SOL    HW139002   3.661   9.428   9.766
11385SOL    HW239003   3.557   9.358   9.871
11386SOL     OW39004   1.937   9.655   9.343
11386SOL    HW139005   1.845   9.627   9.314
11386SOL    HW239006   1.968   9.732   9.287
11387SOL     OW39007   1.934   9.476   9.628
11387SOL    HW139008   1.917   9.559   9.574
11387SOL    HW239009   2.024   9.439   9.606
11388SOL     OW39010   3.087   9.635   9.759
11388SOL    HW139011   3.152   9.561   9.748
11388SOL    HW239012   3.107   9.685   9.843
11389SOL     OW39013   2.945  10.294   9.397
11389SOL    HW139014   2.922  10.347   9.315
11389SOL    HW239015   3.026  10.238   9.378
11390SOL     OW39016   2.290   9.734   9.830
11390SOL    HW139017   2.320   9.662   9.768
11390SOL    HW239018   2.251   9.694   9.913
11391SOL     OW39019   3.214   9.362   9.478
11391SOL    HW139020   3.249   9.321   9.394
11391SOL    HW239021   3.124   9.324   9.498
11392SOL     OW39022   3.162   9.763  10.001
11392SOL    HW139023   3.103   9.843  10.005
11392SOL    HW239024   3.177   9.728  10.094
11393SOL     OW39025   3.954   0.628   0.113
11393SOL    HW139026   3.861   0.626   0.150
11393SOL    HW239027   3.955   0.589   0.021
11394SOL     OW39028   3.949   0.275   0.996
11394SOL    HW139029   3.984   0.258   1.088
11394SOL    HW239030   3.861   0.230   0.984
11395SOL     OW39031   3.743   0.368   0.647
11395SOL    HW139032   3.661   0.411   0.686
11395SOL    HW239033   3.715   0.295   0.584
11396SOL     OW39034   4.293   1.275   1.165
11396SOL    HW139035   4.200   1.268   1.128
11396SOL    HW239036   4.304   1.364   1.209
11397SOL     OW39037   5.279   1.511   0.703
11397SOL    HW139038   5.222   1.495   0.784
11397SOL    HW239039   5.220   1.521   0.623
11398SOL     OW39040   4.859   0.703   0.717
11398SOL    HW139041   4.916   0.781   0.692
11398SOL    HW239042   4.799   0.729   0.793
11399SOL     OW39043   5.479   0.607   0.231
11399SOL    HW139044   5.467   0.594   0.132
11399SOL    HW239045   5.449   0.526   0.280
11400SOL     OW39046   4.492   1.144   1.023
11400SOL    HW139047   4.414   1.161   1.083
11400SOL    HW239048   4.526   1.231   0.987
11401SOL     OW39049   4.574   0.798   1.823
11401SOL    HW139050   4.570   0.874   1.888
11401SOL    HW239051   4.596   0.834   1.732
11402SOL     OW39052   4.409   1.012   0.665
11402SOL    HW139053   4.478   0.996   0.735
11402SOL    HW239054   4.336   1.069   0.703
11403SOL     OW39055   4.410   1.161   1.803
11403SOL    HW139056   4.470   1.240   1.817
11403SOL    HW239057   4.324   1.192   1.762
11404SOL     OW39058   4.059   1.435   1.061
11404SOL    HW139059   3.981   1.404   1.008
11404SOL    HW239060   4.117   1.493   1.004
11405SOL     OW39061   5.184   1.505   1.339
11405SOL    HW139062   5.208   1.599   1.365
11405SOL    HW239063   5.168   1.451   1.421
11406SOL     OW39064   4.162   0.392   1.499
11406SOL    HW139065   4.244   0.336   1.508
11406SOL    HW239066   4.081   0.334   1.503
11407SOL     OW39067   5.327   0.447   0.737
11407SOL    HW139068   5.253   0.493   0.687
11407SOL    HW239069   5.378   0.515   0.790
11408SOL     OW39070   3.955   1.713   0.483
11408SOL    HW139071   3.989   1.790   0.537
11408SOL    HW239072   3.999   1.713   0.393
11409SOL     OW39073   4.851   1.341   1.690
11409SOL    HW139074   4.898   1.341   1.778
11409SOL    HW239075   4.803   1.254   1.679
11410SOL     OW39076   3.954   1.434   0.538
11410SOL    HW139077   3.928   1.530   0.538
11410SOL    HW239078   3.883   1.380   0.583
11411SOL     OW39079   3.964   1.091   0.886
11411SOL    HW139080   3.978   1.007   0.938
11411SOL    HW239081   3.909   1.155   0.941
11412SOL     OW39082   4.344   1.786   1.439
11412SOL    HW139083   4.252   1.769   1.474
11412SOL    HW239084   4.372   1.878   1.465
11413SOL     OW39085   4.330   0.964   0.123
11413SOL    HW139086   4.337   1.048   0.069
11413SOL    HW239087   4.376   0.977   0.211
11414SOL     OW39088   5.318   0.114   1.480
11414SOL    HW139089   5.300   0.181   1.408
11414SOL    HW239090   5.315   0.160   1.569
11415SOL     OW39091   3.846   0.643   0.563
11415SOL    HW139092   3.801   0.555   0.580
11415SOL    HW239093   3.845   0.697   0.647
11416SOL     OW39094   5.566   1.767   0.359
11416SOL    HW139095   5.620   1.738   0.439
11416SOL    HW239096   5.596   1.857   0.330
11417SOL     OW39097   3.751   1.596   0.117
11417SOL    HW139098   3.732   1.500   0.138
11417SOL    HW239099   3.718   1.654   0.192
11418SOL     OW39100   5.413   0.922   0.612
11418SOL    HW139101   5.508   0.893   0.620
11418SOL    HW239102   5.405   0.987   0.537
11419SOL     OW39103   5.365   1.108   0.432
11419SOL    HW139104   5.451   1.110   0.380
11419SOL    HW239105   5.379   1.155   0.520
11420SOL     OW39106   3.837   0.737   1.597
11420SOL    HW139107   3.925   0.724   1.642
11420SOL    HW239108   3.824   0.834   1.575
11421SOL     OW39109   5.017   1.228   1.423
11421SOL    HW139110   5.054   1.155   1.365
11421SOL    HW239111   5.069   1.233   1.508
11422SOL     OW39112   4.533   0.004   0.502
11422SOL    HW139113   4.573   0.095   0.493
11422SOL    HW239114   4.433   0.012   0.508
11423SOL     OW39115   3.921   0.976   1.264
11423SOL    HW139116   4.010   0.931   1.250
11423SOL    HW239117   3.848   0.911   1.245
11424SOL     OW39118   5.249   0.999   0.190
11424SOL    HW139119   5.186   0.923   0.203
11424SOL    HW239120   5.297   1.017   0.276
11425SOL     OW39121   4.911   1.792   1.616
11425SOL    HW139122   4.935   1.852   1.540
11425SOL    HW239123   4.918   1.697   1.586
11426SOL     OW39124   4.041   0.251   1.801
11426SOL    HW139125   4.112   0.322   1.807
11426SOL    HW239126   3.953   0.290   1.829
11427SOL     OW39127   5.190   1.417   0.953
11427SOL    HW139128   5.131   1.423   1.033
11427SOL    HW239129   5.175   1.329   0.907
11428SOL     OW39130   5.391   1.714   0.572
11428SOL    HW139131   5.350   1.691   0.484
11428SOL    HW239132   5.373   1.640   0.637
11429SOL     OW39133   4.322   0.729   0.270
11429SOL    HW139134   4.346   0.798   0.202
11429SOL    HW239135   4.244   0.762   0.324
11430SOL     OW39136   5.300   1.662   0.307
11430SOL    HW139137   5.389   1.708   0.310
11430SOL    HW239138   5.279   1.638   0.212
11431SOL     OW39139   4.531   0.605   1.465
11431SOL    HW139140   4.484   0.602   1.554
11431SOL    HW239141   4.480   0.550   1.399
11432SOL     OW39142   5.118   0.469   1.674
11432SOL    HW139143   5.098   0.512   1.762
11432SOL    HW239144   5.196   0.407   1.683
11433SOL     OW39145   4.697   0.890   1.572
11433SOL    HW139146   4.743   0.806   1.543
11433SOL    HW239147   4.641   0.924   1.497
11434SOL     OW39148   4.765   0.701   0.429
11434SOL    HW139149   4.791   0.697   0.525
11434SOL    HW239150   4.680   0.650   0.415
11435SOL     OW39151   3.800   0.811   0.789
11435SOL    HW139152   3.899   0.799   0.798
11435SOL    HW239153   3.776   0.906   0.810
11436SOL     OW39154   3.854   1.821   1.571
11436SOL    HW139155   3.844   1.806   1.670
11436SOL    HW239156   3.768   1.857   1.535
11437SOL     OW39157   4.589   0.348   0.195
11437SOL    HW139158   4.648   0.411   0.146
11437SOL    HW239159   4.608   0.254   0.166
11438SOL     OW39160   5.443   0.585   1.831
11438SOL    HW139161   5.417   0.674   1.795
11438SOL    HW239162   5.441   0.517   1.758
11439SOL     OW39163   5.086   1.144   0.545
11439SOL    HW139164   5.169   1.115   0.497
11439SOL    HW239165   5.037   1.211   0.489
11440SOL     OW39166   4.274   0.196   0.885
11440SOL    HW139167   4.269   0.191   0.985
11440SOL    HW239168   4.276   0.292   0.856
11441SOL     OW39169   4.732   1.456   0.477
11441SOL    HW139170   4.686   1.528   0.425
11441SOL    HW239171   4.728   1.476   0.575
11442SOL     OW39172   4.075   1.801   0.853
11442SOL    HW139173   4.125   1.715   0.859
11442SOL    HW239174   4.140   1.878   0.850
11443SOL     OW39175   5.519   1.066   0.873
11443SOL    HW139176   5.457   1.051   0.797
11443SOL    HW239177   5.467   1.077   0.958
11444SOL     OW39178   4.951   1.550   1.506
11444SOL    HW139179   4.957   1.473   1.570
11444SOL    HW239180   4.899   1.524   1.426
11445SOL     OW39181   5.182   0.735   0.728
11445SOL    HW139182   5.177   0.670   0.803
11445SOL    HW239183   5.262   0.794   0.741
11446SOL     OW39184   4.835   1.776   0.237
11446SOL    HW139185   4.775   1.714   0.287
11446SOL    HW239186   4.866   1.732   0.152
11447SOL     OW39187   3.926   0.285   1.498
11447SOL    HW139188   3.846   0.345   1.485
11447SOL    HW239189   3.916   0.236   1.584
11448SOL     OW39190   5.356   1.377   0.081
11448SOL    HW139191   5.324   1.471   0.071
11448SOL    HW239192   5.280   1.314   0.069
11449SOL     OW39193   4.188   1.743   0.323
11449SOL    HW139194   4.221   1.782   0.409
11449SOL    HW239195   4.264   1.736   0.258
11450SOL     OW39196   3.973   1.785   1.241
11450SOL    HW139197   4.030   1.720   1.291
11450SOL    HW239198   3.957   1.752   1.148
11451SOL     OW39199   4.664   1.698   0.904
11451SOL    HW139200   4.744   1.641   0.925
11451SOL    HW239201   4.615   1.658   0.827
11452SOL     OW39202   4.106   0.700   0.480
11452SOL    HW139203   4.151   0.610   0.477
11452SOL    HW239204   4.012   0.689   0.513
11453SOL     OW39205   5.271   0.222   1.729
11453SOL    HW139206   5.266   0.259   1.821
11453SOL    HW239207   5.199   0.153   1.717
11454SOL     OW39208   4.338   0.122   0.117
11454SOL    HW139209   4.436   0.100   0.124
11454SOL    HW239210   4.307   0.105   0.024
11455SOL     OW39211   4.505   0.264   1.749
11455SOL    HW139212   4.572   0.203   1.792
11455SOL    HW239213   4.432   0.283   1.814
11456SOL     OW39214   4.612   1.514   1.195
11456SOL    HW139215   4.589   1.489   1.101
11456SOL    HW239216   4.673   1.445   1.234
11457SOL     OW39217   5.075   0.590   1.433
11457SOL    HW139218   5.103   0.547   1.518
11457SOL    HW239219   5.100   0.686   1.434
11458SOL     OW39220   4.646   0.503   0.899
11458SOL    HW139221   4.621   0.494   0.803
11458SOL    HW239222   4.694   0.421   0.930
11459SOL     OW39223   4.263   0.064   0.512
11459SOL    HW139224   4.182   0.065   0.570
11459SOL    HW239225   4.266   0.147   0.457
11460SOL     OW39226   5.158   1.188   0.041
11460SOL    HW139227   5.190   1.112   0.098
11460SOL    HW239228   5.066   1.215   0.071
11461SOL     OW39229   4.021   0.035   0.171
11461SOL    HW139230   4.070   0.119   0.150
11461SOL    HW239231   4.083  -0.030   0.216
11462SOL     OW39232   4.659   0.236   0.480
11462SOL    HW139233   4.611   0.277   0.402
11462SOL    HW239234   4.758   0.234   0.461
11463SOL     OW39235   4.800   0.683   1.464
11463SOL    HW139236   4.720   0.622   1.467
11463SOL    HW239237   4.881   0.630   1.440
11464SOL     OW39238   4.951   1.570   0.793
11464SOL    HW139239   4.972   1.644   0.728
11464SOL    HW239240   5.019   1.570   0.866
11465SOL     OW39241   4.995   1.797   0.591
11465SOL    HW139242   5.039   1.861   0.527
11465SOL    HW239243   4.945   1.849   0.661
11466SOL     OW39244   4.756   0.549   0.016
11466SOL    HW139245   4.715   0.631  -0.023
11466SOL    HW239246   4.820   0.575   0.089
11467SOL     OW39247   3.802   0.556   1.386
11467SOL    HW139248   3.894   0.555   1.345
11467SOL    HW239249   3.796   0.630   1.453
11468SOL     OW39250   4.285   0.222   1.147
11468SOL    HW139251   4.323   0.138   1.184
11468SOL    HW239252   4.197   0.241   1.191
11469SOL     OW39253   4.590   0.454   0.642
11469SOL    HW139254   4.558   0.526   0.580
11469SOL    HW239255   4.614   0.373   0.589
11470SOL     OW39256   4.741   0.039   0.753
11470SOL    HW139257   4.669   0.044   0.684
11470SOL    HW239258   4.717  -0.030   0.822
11471SOL     OW39259   5.153   1.173   0.867
11471SOL    HW139260   5.098   1.089   0.860
11471SOL    HW239261   5.179   1.202   0.775
11472SOL     OW39262   5.190   0.590   0.992
11472SOL    HW139263   5.160   0.495   0.999
11472SOL    HW239264   5.263   0.606   1.058
11473SOL     OW39265   5.581   0.833   0.377
11473SOL    HW139266   5.623   0.769   0.441
11473SOL    HW239267   5.543   0.782   0.299
11474SOL     OW39268   4.212   1.385   0.174
11474SOL    HW139269   4.125   1.370   0.221
11474SOL    HW239270   4.195   1.411   0.079
11475SOL     OW39271   5.388   1.280   0.657
11475SOL    HW139272   5.487   1.288   0.671
11475SOL    HW239273   5.343   1.364   0.688
11476SOL     OW39274   5.114   0.575   0.078
11476SOL    HW139275   5.060   0.554   0.159
11476SOL    HW239276   5.205   0.534   0.087
11477SOL     OW39277   4.251   0.256   0.328
11477SOL    HW139278   4.278   0.197   0.253
11477SOL    HW239279   4.251   0.351   0.297
11478SOL     OW39280   4.788   1.347   1.340
11478SOL    HW139281   4.708   1.324   1.395
11478SOL    HW239282   4.871   1.321   1.389
11479SOL     OW39283   5.316   1.629   1.625
11479SOL    HW139284   5.343   1.663   1.535
11479SOL    HW239285   5.395   1.591   1.671
11480SOL     OW39286   4.835   1.195   1.100
11480SOL    HW139287   4.795   1.239   1.181
11480SOL    HW239288   4.794   1.232   1.017
11481SOL     OW39289   5.362   1.099   1.079
11481SOL    HW139290   5.367   1.180   1.138
11481SOL    HW239291   5.276   1.101   1.028
11482SOL     OW39292   4.639   0.089   1.402
11482SOL    HW139293   4.664   0.069   1.307
11482SOL    HW239294   4.711   0.145   1.444
11483SOL     OW39295   4.704   1.116   1.719
11483SOL    HW139296   4.605   1.122   1.729
11483SOL    HW239297   4.727   1.036   1.663
11484SOL     OW39298   4.429   1.050   0.368
11484SOL    HW139299   4.415   1.057   0.467
11484SOL    HW239300   4.513   0.999   0.350
11485SOL     OW39301   4.134   0.813   1.251
11485SOL    HW139302   4.220   0.825   1.301
11485SOL    HW239303   4.092   0.726   1.278
11486SOL     OW39304   4.091   1.100   0.501
11486SOL    HW139305   4.084   1.183   0.445
11486SOL    HW239306   4.095   1.020   0.441
11487SOL     OW39307   4.290   0.537   0.865
11487SOL    HW139308   4.302   0.603   0.791
11487SOL    HW239309   4.336   0.571   0.948
11488SOL     OW39310   4.976   1.348   0.388
11488SOL    HW139311   5.026   1.425   0.428
11488SOL    HW239312   4.881   1.350   0.420
11489SOL     OW39313   4.996   1.445   1.142
11489SOL    HW139314   5.043   1.458   1.229
11489SOL    HW239315   4.930   1.371   1.151
11490SOL     OW39316   5.306   0.639   0.472
11490SOL    HW139317   5.275   0.700   0.545
11490SOL    HW239318   5.356   0.691   0.403
11491SOL     OW39319   4.126   0.751   1.598
11491SOL    HW139320   4.194   0.806   1.551
11491SOL    HW239321   4.166   0.663   1.625
11492SOL     OW39322   5.311   0.779   1.670
11492SOL    HW139323   5.219   0.817   1.665
11492SOL    HW239324   5.371   0.826   1.605
11493SOL     OW39325   4.737   0.105   1.770
11493SOL    HW139326   4.743   0.190   1.718
11493SOL    HW239327   4.769   0.029   1.713
11494SOL     OW39328   4.228   0.050   1.740
11494SOL    HW139329   4.186  -0.007   1.670
11494SOL    HW239330   4.162   0.119   1.772
11495SOL     OW39331   4.297   0.870   1.029
11495SOL    HW139332   4.341   0.959   1.020
11495SOL    HW239333   4.234   0.870   1.106
11496SOL     OW39334   5.084   0.862   1.045
11496SOL    HW139335   5.009   0.862   0.979
11496SOL    HW239336   5.121   0.770   1.054
11497SOL     OW39337   4.933   0.525   0.275
11497SOL    HW139338   4.946   0.441   0.329
11497SOL    HW239339   4.904   0.599   0.335
11498SOL     OW39340   4.031   0.213   1.231
11498SOL    HW139341   4.008   0.250   1.321
11498SOL    HW239342   4.001   0.118   1.225
11499SOL     OW39343   4.456   0.634   1.064
11499SOL    HW139344   4.515   0.608   0.988
11499SOL    HW239345   4.428   0.730   1.053
11500SOL     OW39346   5.452   0.935   1.854
11500SOL    HW139347   5.406   0.928   1.765
11500SOL    HW239348   5.390   0.979   1.920
11501SOL     OW39349   4.031   0.063   0.618
11501SOL    HW139350   4.020   0.157   0.651
11501SOL    HW239351   4.026   0.000   0.695
11502SOL     OW39352   5.346   0.367   0.374
11502SOL    HW139353   5.348   0.291   0.438
11502SOL    HW239354   5.298   0.444   0.414
11503SOL     OW39355   4.747   0.766   0.966
11503SOL    HW139356   4.762   0.787   1.062
11503SOL    HW239357   4.717   0.671   0.957
11504SOL     OW39358   4.704   1.573   1.700
11504SOL    HW139359   4.684   1.617   1.612
11504SOL    HW239360   4.743   1.482   1.684
11505SOL     OW39361   5.583   1.518   1.605
11505SOL    HW139362   5.597   1.545   1.510
11505SOL    HW239363   5.666   1.540   1.658
11506SOL     OW39364   4.074   0.898   1.804
11506SOL    HW139365   4.150   0.942   1.852
11506SOL    HW239366   4.109   0.851   1.722
11507SOL     OW39367   5.264   0.274   0.125
11507SOL    HW139368   5.203   0.199   0.148
11507SOL    HW239369   5.286   0.326   0.208
11508SOL     OW39370   4.792   1.333   0.849
11508SOL    HW139371   4.799   1.249   0.794
11508SOL    HW239372   4.854   1.402   0.813
11509SOL     OW39373   4.043   0.810   0.949
11509SOL    HW139374   4.136   0.846   0.954
11509SOL    HW239375   4.037   0.725   1.001
11510SOL     OW39376   4.063   0.509   1.006
11510SOL    HW139377   4.011   0.426   0.989
11510SOL    HW239378   4.140   0.514   0.942
11511SOL     OW39379   4.862   0.380   1.678
11511SOL    HW139380   4.817   0.443   1.742
11511SOL    HW239381   4.955   0.411   1.661
11512SOL     OW39382   4.884   0.207   1.477
11512SOL    HW139383   4.884   0.271   1.554
11512SOL    HW239384   4.912   0.255   1.394
11513SOL     OW39385   3.732   1.326   0.200
11513SOL    HW139386   3.639   1.347   0.169
11513SOL    HW239387   3.742   1.227   0.213
11514SOL     OW39388   3.812   1.801   0.927
11514SOL    HW139389   3.770   1.715   0.900
11514SOL    HW239390   3.906   1.804   0.893
11515SOL     OW39391   4.726   0.796   1.238
11515SOL    HW139392   4.767   0.764   1.324
11515SOL    HW239393   4.630   0.769   1.235
11516SOL     OW39394   3.764   0.544   1.114
11516SOL    HW139395   3.849   0.511   1.073
11516SOL    HW239396   3.777   0.559   1.212
11517SOL     OW39397   3.913   0.520   1.722
11517SOL    HW139398   3.972   0.480   1.652
11517SOL    HW239399   3.855   0.591   1.681
11518SOL     OW39400   4.539   0.572   0.325
11518SOL    HW139401   4.546   0.483   0.279
11518SOL    HW239402   4.445   0.606   0.317
11519SOL     OW39403   5.381   0.604   1.206
11519SOL    HW139404   5.343   0.535   1.268
11519SOL    HW239405   5.463   0.568   1.162
11520SOL     OW39406   3.976   1.564   1.744
11520SOL    HW139407   3.946   1.621   1.820
11520SOL    HW239408   3.969   1.467   1.770
11521SOL     OW39409   4.395   0.464   1.269
11521SOL    HW139410   4.361   0.375   1.239
11521SOL    HW239411   4.421   0.518   1.189
11522SOL     OW39412   4.654   1.678   1.465
11522SOL    HW139413   4.630   1.660   1.370
11522SOL    HW239414   4.684   1.772   1.475
11523SOL     OW39415   4.197   0.500   0.191
11523SOL    HW139416   4.258   0.580   0.195
11523SOL    HW239417   4.102   0.531   0.198
11524SOL     OW39418   3.883   1.137   1.466
11524SOL    HW139419   3.905   1.076   1.542
11524SOL    HW239420   3.893   1.088   1.380
11525SOL     OW39421   5.071   1.059   1.234
11525SOL    HW139422   5.095   0.996   1.160
11525SOL    HW239423   4.981   1.099   1.216
11526SOL     OW39424   5.026   0.855   0.309
11526SOL    HW139425   4.940   0.824   0.351
11526SOL    HW239426   5.022   0.841   0.210
11527SOL     OW39427   5.483   1.747   1.154
11527SOL    HW139428   5.544   1.777   1.081
11527SOL    HW239429   5.445   1.658   1.132
11528SOL     OW39430   4.976   1.731   1.128
11528SOL    HW139431   5.060   1.736   1.074
11528SOL    HW239432   4.953   1.635   1.146
11529SOL     OW39433   3.807   1.258   1.022
11529SOL    HW139434   3.802   1.257   1.122
11529SOL    HW239435   3.724   1.217   0.984
11530SOL     OW39436   4.412   1.662   1.716
11530SOL    HW139437   4.356   1.743   1.725
11530SOL    HW239438   4.464   1.666   1.630
11531SOL     OW39439   4.627   0.086   0.133
11531SOL    HW139440   4.678   0.087   0.047
11531SOL    HW239441   4.683   0.044   0.204
11532SOL     OW39442   5.450   0.135   0.523
11532SOL    HW139443   5.523   0.118   0.456
11532SOL    HW239444   5.419   0.048   0.561
11533SOL     OW39445   5.112   1.573   0.477
11533SOL    HW139446   5.179   1.585   0.403
11533SOL    HW239447   5.072   1.662   0.500
11534SOL     OW39448   3.854   1.794   1.851
11534SOL    HW139449   3.813   1.720   1.904
11534SOL    HW239450   3.918   1.845   1.909
11535SOL     OW39451   5.004   0.927   0.672
11535SOL    HW139452   5.064   0.846   0.674
11535SOL    HW239453   5.044   0.996   0.612
11536SOL     OW39454   4.554   1.273   1.422
11536SOL    HW139455   4.549   1.306   1.517
11536SOL    HW239456   4.468   1.292   1.376
11537SOL     OW39457   4.396   1.616   0.154
11537SOL    HW139458   4.405   1.626   0.055
11537SOL    HW239459   4.356   1.527   0.175
11538SOL     OW39460   5.374   1.720   1.394
11538SOL    HW139461   5.427   1.730   1.310
11538SOL    HW239462   5.347   1.810   1.428
11539SOL     OW39463   5.565   0.175   0.963
11539SOL    HW139464   5.604   0.090   0.927
11539SOL    HW239465   5.467   0.177   0.944
11540SOL     OW39466   3.987   0.326   0.720
11540SOL    HW139467   3.908   0.377   0.686
11540SOL    HW239468   3.978   0.311   0.818
11541SOL     OW39469   4.918   1.612   0.031
11541SOL    HW139470   4.924   1.519   0.068
11541SOL    HW239471   4.859   1.612  -0.049
11542SOL     OW39472   4.546   1.002   1.372
11542SOL    HW139473   4.586   1.001   1.280
11542SOL    HW239474   4.556   1.094   1.412
11543SOL     OW39475   4.640   0.910   0.291
11543SOL    HW139476   4.703   0.948   0.223
11543SOL    HW239477   4.680   0.827   0.330
11544SOL     OW39478   5.228   1.607   0.044
11544SOL    HW139479   5.136   1.644   0.051
11544SOL    HW239480   5.266   1.627  -0.046
11545SOL     OW39481   4.763   1.098   0.696
11545SOL    HW139482   4.693   1.051   0.750
11545SOL    HW239483   4.822   1.030   0.653
11546SOL     OW39484   5.433   0.385   1.381
11546SOL    HW139485   5.506   0.454   1.385
11546SOL    HW239486   5.461   0.310   1.322
11547SOL     OW39487   3.979   1.348   0.290
11547SOL    HW139488   3.883   1.349   0.263
11547SOL    HW239489   3.991   1.401   0.374
11548SOL     OW39490   3.829   1.013   1.726
11548SOL    HW139491   3.752   0.980   1.780
11548SOL    HW239492   3.914   0.983   1.768
11549SOL     OW39493   4.396   0.203   1.489
11549SOL    HW139494   4.486   0.187   1.449
11549SOL    HW239495   4.404   0.208   1.588
11550SOL     OW39496   3.799   0.345   0.033
11550SOL    HW139497   3.707   0.317   0.004
11550SOL    HW239498   3.830   0.422  -0.023
11551SOL     OW39499   5.164   0.856   1.398
11551SOL    HW139500   5.107   0.908   1.335
11551SOL    HW239501   5.260   0.868   1.374
11552SOL     OW39502   4.907   1.335   0.119
11552SOL    HW139503   4.808   1.324   0.121
11552SOL    HW239504   4.941   1.350   0.212
11553SOL     OW39505   4.337   0.842   1.431
11553SOL    HW139506   4.393   0.923   1.414
11553SOL    HW239507   4.396   0.762   1.434
11554SOL     OW39508   5.217   1.767   0.959
11554SOL    HW139509   5.250   1.831   0.890
11554SOL    HW239510   5.283   1.761   1.034
11555SOL     OW39511   4.440   0.565   1.708
11555SOL    HW139512   4.459   0.630   1.782
11555SOL    HW239513   4.500   0.485   1.717
11556SOL     OW39514   4.114   1.741   1.560
11556SOL    HW139515   4.023   1.782   1.558
11556SOL    HW239516   4.107   1.647   1.592
11557SOL     OW39517   5.398   0.883   1.254
11557SOL    HW139518   5.371   0.794   1.217
11557SOL    HW239519   5.399   0.951   1.181
11558SOL     OW39520   4.318   0.745   0.652
11558SOL    HW139521   4.368   0.830   0.633
11558SOL    HW239522   4.230   0.747   0.604
11559SOL     OW39523   5.501   0.342   1.642
11559SOL    HW139524   5.484   0.373   1.548
11559SOL    HW239525   5.417   0.305   1.680
11560SOL     OW39526   5.454   0.934   1.517
11560SOL    HW139527   5.492   1.025   1.532
11560SOL    HW239528   5.446   0.917   1.418
11561SOL     OW39529   4.583   1.374   0.016
11561SOL    HW139530   4.537   1.389   0.104
11561SOL    HW239531   4.627   1.459  -0.014
11562SOL     OW39532   4.385   1.790   0.953
11562SOL    HW139533   4.339   1.878   0.940
11562SOL    HW239534   4.484   1.802   0.946
11563SOL     OW39535   4.583   0.956   0.861
11563SOL    HW139536   4.637   0.887   0.909
11563SOL    HW239537   4.551   1.025   0.927
11564SOL     OW39538   4.807   0.984   0.087
11564SOL    HW139539   4.784   1.037   0.005
11564SOL    HW239540   4.888   0.928   0.068
11565SOL     OW39541   5.585   1.569   0.851
11565SOL    HW139542   5.514   1.557   0.781
11565SOL    HW239543   5.586   1.490   0.911
11566SOL     OW39544   3.945   1.314   1.844
11566SOL    HW139545   3.880   1.241   1.823
11566SOL    HW239546   3.949   1.328   1.942
11567SOL     OW39547   3.803   1.240   0.653
11567SOL    HW139548   3.802   1.193   0.741
11567SOL    HW239549   3.885   1.212   0.602
11568SOL     OW39550   4.396   1.391   1.624
11568SOL    HW139551   4.318   1.341   1.662
11568SOL    HW239552   4.393   1.486   1.655
11569SOL     OW39553   5.548   0.192   1.227
11569SOL    HW139554   5.544   0.102   1.271
11569SOL    HW239555   5.551   0.181   1.128
11570SOL     OW39556   4.152   0.424   0.520
11570SOL    HW139557   4.182   0.352   0.458
11570SOL    HW239558   4.113   0.384   0.603
11571SOL     OW39559   5.429   1.487   1.104
11571SOL    HW139560   5.336   1.462   1.077
11571SOL    HW239561   5.455   1.437   1.186
11572SOL     OW39562   4.041   0.547   1.280
11572SOL    HW139563   4.079   0.488   1.352
11572SOL    HW239564   4.081   0.521   1.192
11573SOL     OW39565   4.342   1.567   1.284
11573SOL    HW139566   4.337   1.649   1.341
11573SOL    HW239567   4.431   1.564   1.239
11574SOL     OW39568   5.076   0.052   0.168
11574SOL    HW139569   5.111   0.011   0.084
11574SOL    HW239570   4.986   0.014   0.188
11575SOL     OW39571   5.024   0.453   0.691
11575SOL    HW139572   4.965   0.533   0.695
11575SOL    HW239573   5.039   0.418   0.784
11576SOL     OW39574   5.317   0.221   0.882
11576SOL    HW139575   5.233   0.220   0.936
11576SOL    HW239576   5.319   0.304   0.826
11577SOL     OW39577   3.763   1.077   0.300
11577SOL    HW139578   3.862   1.066   0.291
11577SOL    HW239579   3.723   0.991   0.332
11578SOL     OW39580   3.954   0.628   1.975
11578SOL    HW139581   3.861   0.626   2.012
11578SOL    HW239582   3.955   0.589   1.883
11579SOL     OW39583   3.949   0.275   2.858
11579SOL    HW139584   3.984   0.258   2.950
11579SOL    HW239585   3.861   0.230   2.846
11580SOL     OW39586   4.293   1.275   3.027
11580SOL    HW139587   4.200   1.268   2.990
11580SOL    HW239588   4.304   1.364   3.071
11581SOL     OW39589   5.279   1.511   2.565
11581SOL    HW139590   5.222   1.495   2.646
11581SOL    HW239591   5.220   1.521   2.485
11582SOL     OW39592   4.859   0.703   2.579
11582SOL    HW139593   4.916   0.781   2.554
11582SOL    HW239594   4.799   0.729   2.655
11583SOL     OW39595   5.479   0.607   2.093
11583SOL    HW139596   5.467   0.594   1.994
11583SOL    HW239597   5.449   0.526   2.142
11584SOL     OW39598   4.492   1.144   2.885
11584SOL    HW139599   4.414   1.161   2.945
11584SOL    HW239600   4.526   1.231   2.849
11585SOL     OW39601   4.409   1.012   2.527
11585SOL    HW139602   4.478   0.996   2.597
11585SOL    HW239603   4.336   1.069   2.565
11586SOL     OW39604   4.059   1.435   2.923
11586SOL    HW139605   3.981   1.404   2.870
11586SOL    HW239606   4.117   1.493   2.866
11587SOL     OW39607   5.184   1.505   3.201
11587SOL    HW139608   5.208   1.599   3.227
11587SOL    HW239609   5.168   1.451   3.283
11588SOL     OW39610   4.162   0.392   3.361
11588SOL    HW139611   4.244   0.336   3.370
11588SOL    HW239612   4.081   0.334   3.365
11589SOL     OW39613   5.327   0.447   2.599
11589SOL    HW139614   5.253   0.493   2.549
11589SOL    HW239615   5.378   0.515   2.652
11590SOL     OW39616   3.955   1.713   2.345
11590SOL    HW139617   3.989   1.790   2.399
11590SOL    HW239618   3.999   1.713   2.255
11591SOL     OW39619   3.954   1.434   2.400
11591SOL    HW139620   3.928   1.530   2.400
11591SOL    HW239621   3.883   1.380   2.445
11592SOL     OW39622   3.964   1.091   2.748
11592SOL    HW139623   3.978   1.007   2.800
11592SOL    HW239624   3.909   1.155   2.803
11593SOL     OW39625   4.344   1.786   3.301
11593SOL    HW139626   4.252   1.769   3.336
11593SOL    HW239627   4.372   1.878   3.327
11594SOL     OW39628   4.330   0.964   1.985
11594SOL    HW139629   4.337   1.048   1.931
11594SOL    HW239630   4.376   0.977   2.073
11595SOL     OW39631   5.318   0.114   3.342
11595SOL    HW139632   5.300   0.181   3.270
11595SOL    HW239633   5.315   0.160   3.431
11596SOL     OW39634   5.566   1.767   2.221
11596SOL    HW139635   5.620   1.738   2.301
11596SOL    HW239636   5.596   1.857   2.192
11597SOL     OW39637   3.751   1.596   1.979
11597SOL    HW139638   3.732   1.500   2.000
11597SOL    HW239639   3.718   1.654   2.054
11598SOL     OW39640   5.413   0.922   2.474
11598SOL    HW139641   5.508   0.893   2.482
11598SOL    HW239642   5.405   0.987   2.399
11599SOL     OW39643   5.365   1.108   2.294
11599SOL    HW139644   5.451   1.110   2.242
11599SOL    HW239645   5.379   1.155   2.382
11600SOL     OW39646   3.837   0.737   3.459
11600SOL    HW139647   3.925   0.724   3.504
11600SOL    HW239648   3.824   0.834   3.437
11601SOL     OW39649   4.337   1.365   2.588
11601SOL    HW139650   4.288   1.278   2.597
11601SOL    HW239651   4.314   1.408   2.501
11602SOL     OW39652   5.017   1.228   3.285
11602SOL    HW139653   5.054   1.155   3.227
11602SOL    HW239654   5.069   1.233   3.370
11603SOL     OW39655   4.533   0.004   2.364
11603SOL    HW139656   4.573   0.095   2.355
11603SOL    HW239657   4.433   0.012   2.370
11604SOL     OW39658   3.921   0.976   3.126
11604SOL    HW139659   4.010   0.931   3.112
11604SOL    HW239660   3.848   0.911   3.107
11605SOL     OW39661   5.249   0.999   2.052
11605SOL    HW139662   5.186   0.923   2.065
11605SOL    HW239663   5.297   1.017   2.138
11606SOL     OW39664   4.911   1.792   3.478
11606SOL    HW139665   4.935   1.852   3.402
11606SOL    HW239666   4.918   1.697   3.448
11607SOL     OW39667   5.190   1.417   2.815
11607SOL    HW139668   5.131   1.423   2.895
11607SOL    HW239669   5.175   1.329   2.769
11608SOL     OW39670   5.391   1.714   2.434
11608SOL    HW139671   5.350   1.691   2.346
11608SOL    HW239672   5.373   1.640   2.499
11609SOL     OW39673   4.322   0.729   2.132
11609SOL    HW139674   4.346   0.798   2.064
11609SOL    HW239675   4.244   0.762   2.186
11610SOL     OW39676   5.005   0.345   2.806
11610SOL    HW139677   4.919   0.295   2.793
11610SOL    HW239678   5.067   0.291   2.862
11611SOL     OW39679   5.300   1.662   2.169
11611SOL    HW139680   5.389   1.708   2.172
11611SOL    HW239681   5.279   1.638   2.074
11612SOL     OW39682   4.531   0.605   3.327
11612SOL    HW139683   4.484   0.602   3.416
11612SOL    HW239684   4.480   0.550   3.261
11613SOL     OW39685   5.118   0.469   3.536
11613SOL    HW139686   5.098   0.512   3.624
11613SOL    HW239687   5.196   0.407   3.545
11614SOL     OW39688   4.715   0.410   3.104
11614SOL    HW139689   4.638   0.444   3.158
11614SOL    HW239690   4.681   0.359   3.025
11615SOL     OW39691   4.765   0.701   2.291
11615SOL    HW139692   4.791   0.697   2.387
11615SOL    HW239693   4.680   0.650   2.277
11616SOL     OW39694   3.854   1.821   3.433
11616SOL    HW139695   3.844   1.806   3.532
11616SOL    HW239696   3.768   1.857   3.397
11617SOL     OW39697   4.589   0.348   2.057
11617SOL    HW139698   4.648   0.411   2.008
11617SOL    HW239699   4.608   0.254   2.028
11618SOL     OW39700   5.443   0.585   3.693
11618SOL    HW139701   5.417   0.674   3.657
11618SOL    HW239702   5.441   0.517   3.620
11619SOL     OW39703   5.086   1.144   2.407
11619SOL    HW139704   5.169   1.115   2.359
11619SOL    HW239705   5.037   1.211   2.351
11620SOL     OW39706   4.732   1.456   2.339
11620SOL    HW139707   4.686   1.528   2.287
11620SOL    HW239708   4.728   1.476   2.437
11621SOL     OW39709   5.519   1.066   2.735
11621SOL    HW139710   5.457   1.051   2.659
11621SOL    HW239711   5.467   1.077   2.820
11622SOL     OW39712   4.951   1.550   3.368
11622SOL    HW139713   4.957   1.473   3.432
11622SOL    HW239714   4.899   1.524   3.288
11623SOL     OW39715   4.045   0.943   2.104
11623SOL    HW139716   4.127   0.982   2.062
11623SOL    HW239717   4.018   0.861   2.055
11624SOL     OW39718   5.182   0.735   2.590
11624SOL    HW139719   5.177   0.670   2.665
11624SOL    HW239720   5.262   0.794   2.603
11625SOL     OW39721   4.185   1.266   3.589
11625SOL    HW139722   4.135   1.267   3.503
11625SOL    HW239723   4.122   1.248   3.665
11626SOL     OW39724   4.835   1.776   2.099
11626SOL    HW139725   4.775   1.714   2.149
11626SOL    HW239726   4.866   1.732   2.014
11627SOL     OW39727   3.926   0.285   3.360
11627SOL    HW139728   3.846   0.345   3.347
11627SOL    HW239729   3.916   0.236   3.446
11628SOL     OW39730   4.188   1.743   2.185
11628SOL    HW139731   4.221   1.782   2.271
11628SOL    HW239732   4.264   1.736   2.120
11629SOL     OW39733   5.124   0.107   2.288
11629SOL    HW139734   5.100   0.070   2.198
11629SOL    HW239735   5.223   0.123   2.292
11630SOL     OW39736   3.973   1.785   3.103
11630SOL    HW139737   4.030   1.720   3.153
11630SOL    HW239738   3.957   1.752   3.010
11631SOL     OW39739   4.106   0.700   2.342
11631SOL    HW139740   4.151   0.610   2.339
11631SOL    HW239741   4.012   0.689   2.375
11632SOL     OW39742   5.271   0.222   3.591
11632SOL    HW139743   5.266   0.259   3.683
11632SOL    HW239744   5.199   0.153   3.579
11633SOL     OW39745   4.338   0.122   1.979
11633SOL    HW139746   4.436   0.100   1.986
11633SOL    HW239747   4.307   0.105   1.886
11634SOL     OW39748   4.505   0.264   3.611
11634SOL    HW139749   4.572   0.203   3.654
11634SOL    HW239750   4.432   0.283   3.676
11635SOL     OW39751   4.612   1.514   3.057
11635SOL    HW139752   4.589   1.489   2.963
11635SOL    HW239753   4.673   1.445   3.096
11636SOL     OW39754   5.075   0.590   3.295
11636SOL    HW139755   5.103   0.547   3.380
11636SOL    HW239756   5.100   0.686   3.296
11637SOL     OW39757   4.527   1.402   2.786
11637SOL    HW139758   4.617   1.416   2.744
11637SOL    HW239759   4.456   1.404   2.715
11638SOL     OW39760   4.021   0.035   2.033
11638SOL    HW139761   4.070   0.119   2.012
11638SOL    HW239762   4.083  -0.030   2.078
11639SOL     OW39763   4.800   0.683   3.326
11639SOL    HW139764   4.720   0.622   3.329
11639SOL    HW239765   4.881   0.630   3.302
11640SOL     OW39766   4.951   1.570   2.655
11640SOL    HW139767   4.972   1.644   2.590
11640SOL    HW239768   5.019   1.570   2.728
11641SOL     OW39769   4.183   1.152   2.603
11641SOL    HW139770   4.112   1.125   2.668
11641SOL    HW239771   4.157   1.124   2.510
11642SOL     OW39772   4.995   1.797   2.453
11642SOL    HW139773   5.039   1.861   2.389
11642SOL    HW239774   4.945   1.849   2.523
11643SOL     OW39775   4.756   0.549   1.878
11643SOL    HW139776   4.715   0.631   1.839
11643SOL    HW239777   4.820   0.575   1.951
11644SOL     OW39778   3.802   0.556   3.248
11644SOL    HW139779   3.894   0.555   3.207
11644SOL    HW239780   3.796   0.630   3.315
11645SOL     OW39781   4.285   0.222   3.009
11645SOL    HW139782   4.323   0.138   3.046
11645SOL    HW239783   4.197   0.241   3.053
11646SOL     OW39784   4.741   0.039   2.615
11646SOL    HW139785   4.669   0.044   2.546
11646SOL    HW239786   4.717  -0.030   2.684
11647SOL     OW39787   5.153   1.173   2.729
11647SOL    HW139788   5.098   1.089   2.722
11647SOL    HW239789   5.179   1.202   2.637
11648SOL     OW39790   5.190   0.590   2.854
11648SOL    HW139791   5.160   0.495   2.861
11648SOL    HW239792   5.263   0.606   2.920
11649SOL     OW39793   5.581   0.833   2.239
11649SOL    HW139794   5.623   0.769   2.303
11649SOL    HW239795   5.543   0.782   2.161
11650SOL     OW39796   4.212   1.385   2.036
11650SOL    HW139797   4.125   1.370   2.083
11650SOL    HW239798   4.195   1.411   1.941
11651SOL     OW39799   5.388   1.280   2.519
11651SOL    HW139800   5.487   1.288   2.533
11651SOL    HW239801   5.343   1.364   2.550
11652SOL     OW39802   5.114   0.575   1.940
11652SOL    HW139803   5.060   0.554   2.021
11652SOL    HW239804   5.205   0.534   1.949
11653SOL     OW39805   4.251   0.256   2.190
11653SOL    HW139806   4.278   0.197   2.115
11653SOL    HW239807   4.251   0.351   2.159
11654SOL     OW39808   5.478   1.223   3.450
11654SOL    HW139809   5.569   1.184   3.437
11654SOL    HW239810   5.486   1.319   3.474
11655SOL     OW39811   4.788   1.347   3.202
11655SOL    HW139812   4.708   1.324   3.257
11655SOL    HW239813   4.871   1.321   3.251
11656SOL     OW39814   5.316   1.629   3.487
11656SOL    HW139815   5.343   1.663   3.397
11656SOL    HW239816   5.395   1.591   3.533
11657SOL     OW39817   4.835   1.195   2.962
11657SOL    HW139818   4.795   1.239   3.043
11657SOL    HW239819   4.794   1.232   2.879
11658SOL     OW39820   5.362   1.099   2.941
11658SOL    HW139821   5.367   1.180   3.000
11658SOL    HW239822   5.276   1.101   2.890
11659SOL     OW39823   4.639   0.089   3.264
11659SOL    HW139824   4.664   0.069   3.169
11659SOL    HW239825   4.711   0.145   3.306
11660SOL     OW39826   4.429   1.050   2.230
11660SOL    HW139827   4.415   1.057   2.329
11660SOL    HW239828   4.513   0.999   2.212
11661SOL     OW39829   4.134   0.813   3.113
11661SOL    HW139830   4.220   0.825   3.163
11661SOL    HW239831   4.092   0.726   3.140
11662SOL     OW39832   4.998   0.386   3.124
11662SOL    HW139833   5.019   0.460   3.188
11662SOL    HW239834   4.909   0.403   3.081
11663SOL     OW39835   3.788   1.564   3.193
11663SOL    HW139836   3.742   1.646   3.159
11663SOL    HW239837   3.886   1.583   3.202
11664SOL     OW39838   4.091   1.100   2.363
11664SOL    HW139839   4.084   1.183   2.307
11664SOL    HW239840   4.095   1.020   2.303
11665SOL     OW39841   4.976   1.348   2.250
11665SOL    HW139842   5.026   1.425   2.290
11665SOL    HW239843   4.881   1.350   2.282
11666SOL     OW39844   4.996   1.445   3.004
11666SOL    HW139845   5.043   1.458   3.091
11666SOL    HW239846   4.930   1.371   3.013
11667SOL     OW39847   5.306   0.639   2.334
11667SOL    HW139848   5.275   0.700   2.407
11667SOL    HW239849   5.356   0.691   2.265
11668SOL     OW39850   4.078   1.510   3.191
11668SOL    HW139851   4.057   1.466   3.104
11668SOL    HW239852   4.175   1.536   3.194
11669SOL     OW39853   5.311   0.779   3.532
11669SOL    HW139854   5.219   0.817   3.527
11669SOL    HW239855   5.371   0.826   3.467
11670SOL     OW39856   4.737   0.105   3.632
11670SOL    HW139857   4.743   0.190   3.580
11670SOL    HW239858   4.769   0.029   3.575
11671SOL     OW39859   4.228   0.050   3.602
11671SOL    HW139860   4.186  -0.007   3.532
11671SOL    HW239861   4.162   0.119   3.634
11672SOL     OW39862   4.297   0.870   2.891
11672SOL    HW139863   4.341   0.959   2.882
11672SOL    HW239864   4.234   0.870   2.968
11673SOL     OW39865   5.084   0.862   2.907
11673SOL    HW139866   5.009   0.862   2.841
11673SOL    HW239867   5.121   0.770   2.916
11674SOL     OW39868   4.933   0.525   2.137
11674SOL    HW139869   4.946   0.441   2.191
11674SOL    HW239870   4.904   0.599   2.197
11675SOL     OW39871   4.031   0.213   3.093
11675SOL    HW139872   4.008   0.250   3.183
11675SOL    HW239873   4.001   0.118   3.087
11676SOL     OW39874   3.761   1.310   3.144
11676SOL    HW139875   3.814   1.261   3.212
11676SOL    HW239876   3.783   1.408   3.149
11677SOL     OW39877   4.456   0.634   2.926
11677SOL    HW139878   4.515   0.608   2.850
11677SOL    HW239879   4.428   0.730   2.915
11678SOL     OW39880   5.452   0.935   3.716
11678SOL    HW139881   5.406   0.928   3.627
11678SOL    HW239882   5.390   0.979   3.782
11679SOL     OW39883   4.031   0.063   2.480
11679SOL    HW139884   4.020   0.157   2.513
11679SOL    HW239885   4.026   0.000   2.557
11680SOL     OW39886   5.346   0.367   2.236
11680SOL    HW139887   5.348   0.291   2.300
11680SOL    HW239888   5.298   0.444   2.276
11681SOL     OW39889   4.747   0.766   2.828
11681SOL    HW139890   4.762   0.787   2.924
11681SOL    HW239891   4.717   0.671   2.819
11682SOL     OW39892   4.704   1.573   3.562
11682SOL    HW139893   4.684   1.617   3.474
11682SOL    HW239894   4.743   1.482   3.546
11683SOL     OW39895   5.583   1.518   3.467
11683SOL    HW139896   5.597   1.545   3.372
11683SOL    HW239897   5.666   1.540   3.520
11684SOL     OW39898   5.264   0.274   1.987
11684SOL    HW139899   5.203   0.199   2.010
11684SOL    HW239900   5.286   0.326   2.070
11685SOL     OW39901   5.027   0.838   1.904
11685SOL    HW139902   5.061   0.745   1.919
11685SOL    HW239903   5.045   0.865   1.809
11686SOL     OW39904   4.792   1.333   2.711
11686SOL    HW139905   4.799   1.249   2.656
11686SOL    HW239906   4.854   1.402   2.675
11687SOL     OW39907   4.862   0.380   3.540
11687SOL    HW139908   4.817   0.443   3.604
11687SOL    HW239909   4.955   0.411   3.523
11688SOL     OW39910   4.884   0.207   3.339
11688SOL    HW139911   4.884   0.271   3.416
11688SOL    HW239912   4.912   0.255   3.256
11689SOL     OW39913   4.726   0.796   3.100
11689SOL    HW139914   4.767   0.764   3.186
11689SOL    HW239915   4.630   0.769   3.097
11690SOL     OW39916   3.764   0.544   2.976
11690SOL    HW139917   3.849   0.511   2.935
11690SOL    HW239918   3.777   0.559   3.074
11691SOL     OW39919   3.913   0.520   3.584
11691SOL    HW139920   3.972   0.480   3.514
11691SOL    HW239921   3.855   0.591   3.543
11692SOL     OW39922   5.093   0.950   3.522
11692SOL    HW139923   5.132   1.039   3.542
11692SOL    HW239924   5.103   0.930   3.425
11693SOL     OW39925   4.539   0.572   2.187
11693SOL    HW139926   4.546   0.483   2.141
11693SOL    HW239927   4.445   0.606   2.179
11694SOL     OW39928   5.381   0.604   3.068
11694SOL    HW139929   5.343   0.535   3.130
11694SOL    HW239930   5.463   0.568   3.024
11695SOL     OW39931   3.976   1.564   3.606
11695SOL    HW139932   3.946   1.621   3.682
11695SOL    HW239933   3.969   1.467   3.632
11696SOL     OW39934   4.395   0.464   3.131
11696SOL    HW139935   4.361   0.375   3.101
11696SOL    HW239936   4.421   0.518   3.051
11697SOL     OW39937   4.654   1.678   3.327
11697SOL    HW139938   4.630   1.660   3.232
11697SOL    HW239939   4.684   1.772   3.337
11698SOL     OW39940   4.197   0.500   2.053
11698SOL    HW139941   4.258   0.580   2.057
11698SOL    HW239942   4.102   0.531   2.060
11699SOL     OW39943   3.883   1.137   3.328
11699SOL    HW139944   3.905   1.076   3.404
11699SOL    HW239945   3.893   1.088   3.242
11700SOL     OW39946   5.071   1.059   3.096
11700SOL    HW139947   5.095   0.996   3.022
11700SOL    HW239948   4.981   1.099   3.078
11701SOL     OW39949   5.026   0.855   2.171
11701SOL    HW139950   4.940   0.824   2.213
11701SOL    HW239951   5.022   0.841   2.072
11702SOL     OW39952   5.483   1.747   3.016
11702SOL    HW139953   5.544   1.777   2.943
11702SOL    HW239954   5.445   1.658   2.994
11703SOL     OW39955   4.976   1.731   2.990
11703SOL    HW139956   5.060   1.736   2.936
11703SOL    HW239957   4.953   1.635   3.008
11704SOL     OW39958   3.807   1.258   2.884
11704SOL    HW139959   3.802   1.257   2.984
11704SOL    HW239960   3.724   1.217   2.846
11705SOL     OW39961   4.412   1.662   3.578
11705SOL    HW139962   4.356   1.743   3.587
11705SOL    HW239963   4.464   1.666   3.492
11706SOL     OW39964   5.450   0.135   2.385
11706SOL    HW139965   5.523   0.118   2.318
11706SOL    HW239966   5.419   0.048   2.423
11707SOL     OW39967   5.112   1.573   2.339
11707SOL    HW139968   5.179   1.585   2.265
11707SOL    HW239969   5.072   1.662   2.362
11708SOL     OW39970   3.854   1.794   3.713
11708SOL    HW139971   3.813   1.720   3.766
11708SOL    HW239972   3.918   1.845   3.771
11709SOL     OW39973   5.004   0.927   2.534
11709SOL    HW139974   5.064   0.846   2.536
11709SOL    HW239975   5.044   0.996   2.474
11710SOL     OW39976   4.554   1.273   3.284
11710SOL    HW139977   4.549   1.306   3.379
11710SOL    HW239978   4.468   1.292   3.238
11711SOL     OW39979   4.396   1.616   2.016
11711SOL    HW139980   4.405   1.626   1.917
11711SOL    HW239981   4.356   1.527   2.037
11712SOL     OW39982   5.374   1.720   3.256
11712SOL    HW139983   5.427   1.730   3.172
11712SOL    HW239984   5.347   1.810   3.290
11713SOL     OW39985   5.565   0.175   2.825
11713SOL    HW139986   5.604   0.090   2.789
11713SOL    HW239987   5.467   0.177   2.806
11714SOL     OW39988   3.987   0.326   2.582
11714SOL    HW139989   3.908   0.377   2.548
11714SOL    HW239990   3.978   0.311   2.680
11715SOL     OW39991   4.918   1.612   1.893
11715SOL    HW139992   4.924   1.519   1.930
11715SOL    HW239993   4.859   1.612   1.813
11716SOL     OW39994   4.546   1.002   3.234
11716SOL    HW139995   4.586   1.001   3.142
11716SOL    HW239996   4.556   1.094   3.274
11717SOL     OW39997   4.640   0.910   2.153
11717SOL    HW139998   4.703   0.948   2.085
11717SOL    HW239999   4.680   0.827   2.192
11718SOL     OW40000   5.228   1.607   1.906
11718SOL    HW140001   5.136   1.644   1.913
11718SOL    HW240002   5.266   1.627   1.816
11719SOL     OW40003   4.096   1.288   3.352
11719SOL    HW140004   4.083   1.381   3.318
11719SOL    HW240005   4.012   1.236   3.339
11720SOL     OW40006   5.338   1.292   3.151
11720SOL    HW140007   5.398   1.295   3.231
11720SOL    HW240008   5.263   1.356   3.164
11721SOL     OW40009   4.763   1.098   2.558
11721SOL    HW140010   4.693   1.051   2.612
11721SOL    HW240011   4.822   1.030   2.515
11722SOL     OW40012   4.738   0.236   2.833
11722SOL    HW140013   4.730   0.200   2.740
11722SOL    HW240014   4.736   0.160   2.898
11723SOL     OW40015   4.314   1.487   2.353
11723SOL    HW140016   4.356   1.429   2.283
11723SOL    HW240017   4.270   1.566   2.309
11724SOL     OW40018   5.433   0.385   3.243
11724SOL    HW140019   5.506   0.454   3.247
11724SOL    HW240020   5.461   0.310   3.184
11725SOL     OW40021   3.979   1.348   2.152
11725SOL    HW140022   3.883   1.349   2.125
11725SOL    HW240023   3.991   1.401   2.236
11726SOL     OW40024   3.829   1.013   3.588
11726SOL    HW140025   3.752   0.980   3.642
11726SOL    HW240026   3.914   0.983   3.630
11727SOL     OW40027   4.396   0.203   3.351
11727SOL    HW140028   4.486   0.187   3.311
11727SOL    HW240029   4.404   0.208   3.450
11728SOL     OW40030   3.799   0.345   1.895
11728SOL    HW140031   3.707   0.317   1.866
11728SOL    HW240032   3.830   0.422   1.839
11729SOL     OW40033   5.164   0.856   3.260
11729SOL    HW140034   5.107   0.908   3.197
11729SOL    HW240035   5.260   0.868   3.236
11730SOL     OW40036   3.796   0.166   2.180
11730SOL    HW140037   3.779   0.249   2.126
11730SOL    HW240038   3.886   0.129   2.158
11731SOL     OW40039   4.907   1.335   1.981
11731SOL    HW140040   4.808   1.324   1.983
11731SOL    HW240041   4.941   1.350   2.074
11732SOL     OW40042   5.217   1.767   2.821
11732SOL    HW140043   5.250   1.831   2.752
11732SOL    HW240044   5.283   1.761   2.896
11733SOL     OW40045   4.440   0.565   3.570
11733SOL    HW140046   4.459   0.630   3.644
11733SOL    HW240047   4.500   0.485   3.579
11734SOL     OW40048   5.174   1.220   3.495
11734SOL    HW140049   5.165   1.210   3.594
11734SOL    HW240050   5.270   1.213   3.469
11735SOL     OW40051   4.114   1.741   3.422
11735SOL    HW140052   4.023   1.782   3.420
11735SOL    HW240053   4.107   1.647   3.454
11736SOL     OW40054   5.398   0.883   3.116
11736SOL    HW140055   5.371   0.794   3.079
11736SOL    HW240056   5.399   0.951   3.043
11737SOL     OW40057   4.949   0.325   2.311
11737SOL    HW140058   5.014   0.251   2.300
11737SOL    HW240059   4.969   0.375   2.395
11738SOL     OW40060   4.318   0.745   2.514
11738SOL    HW140061   4.368   0.830   2.495
11738SOL    HW240062   4.230   0.747   2.466
11739SOL     OW40063   5.454   0.934   3.379
11739SOL    HW140064   5.492   1.025   3.394
11739SOL    HW240065   5.446   0.917   3.280
11740SOL     OW40066   4.583   1.374   1.878
11740SOL    HW140067   4.537   1.389   1.966
11740SOL    HW240068   4.627   1.459   1.848
11741SOL     OW40069   4.583   0.956   2.723
11741SOL    HW140070   4.637   0.887   2.771
11741SOL    HW240071   4.551   1.025   2.789
11742SOL     OW40072   4.807   0.984   1.949
11742SOL    HW140073   4.784   1.037   1.867
11742SOL    HW240074   4.888   0.928   1.930
11743SOL     OW40075   5.585   1.569   2.713
11743SOL    HW140076   5.514   1.557   2.643
11743SOL    HW240077   5.586   1.490   2.773
11744SOL     OW40078   3.945   1.314   3.706
11744SOL    HW140079   3.880   1.241   3.685
11744SOL    HW240080   3.949   1.328   3.804
11745SOL     OW40081   3.803   1.240   2.515
11745SOL    HW140082   3.802   1.193   2.603
11745SOL    HW240083   3.885   1.212   2.464
11746SOL     OW40084   4.396   1.391   3.486
11746SOL    HW140085   4.318   1.341   3.524
11746SOL    HW240086   4.393   1.486   3.517
11747SOL     OW40087   5.548   0.192   3.089
11747SOL    HW140088   5.544   0.102   3.133
11747SOL    HW240089   5.551   0.181   2.990
11748SOL     OW40090   4.152   0.424   2.382
11748SOL    HW140091   4.182   0.352   2.320
11748SOL    HW240092   4.113   0.384   2.465
11749SOL     OW40093   5.429   1.487   2.966
11749SOL    HW140094   5.336   1.462   2.939
11749SOL    HW240095   5.455   1.437   3.048
11750SOL     OW40096   4.041   0.547   3.142
11750SOL    HW140097   4.079   0.488   3.214
11750SOL    HW240098   4.081   0.521   3.054
11751SOL     OW40099   4.536   1.586   2.549
11751SOL    HW140100   4.568   1.596   2.455
11751SOL    HW240101   4.457   1.524   2.551
11752SOL     OW40102   5.148   0.214   2.974
11752SOL    HW140103   5.200   0.149   3.029
11752SOL    HW240104   5.099   0.277   3.035
11753SOL     OW40105   4.725   0.034   3.016
11753SOL    HW140106   4.662  -0.038   2.985
11753SOL    HW240107   4.818  -0.002   3.016
11754SOL     OW40108   4.494   1.330   2.163
11754SOL    HW140109   4.448   1.243   2.180
11754SOL    HW240110   4.585   1.327   2.204
11755SOL     OW40111   4.342   1.567   3.146
11755SOL    HW140112   4.337   1.649   3.203
11755SOL    HW240113   4.431   1.564   3.101
11756SOL     OW40114   5.076   0.052   2.030
11756SOL    HW140115   5.111   0.011   1.946
11756SOL    HW240116   4.986   0.014   2.050
11757SOL     OW40117   5.024   0.453   2.553
11757SOL    HW140118   4.965   0.533   2.557
11757SOL    HW240119   5.039   0.418   2.646
11758SOL     OW40120   5.317   0.221   2.744
11758SOL    HW140121   5.233   0.220   2.798
11758SOL    HW240122   5.319   0.304   2.688
11759SOL     OW40123   3.763   1.077   2.162
11759SOL    HW140124   3.862   1.066   2.153
11759SOL    HW240125   3.723   0.991   2.194
11760SOL     OW40126   4.599   1.646   2.199
11760SOL    HW140127   4.522   1.611   2.145
11760SOL    HW240128   4.567   1.717   2.261
11761SOL     OW40129   3.949   0.275   4.720
11761SOL    HW140130   3.984   0.258   4.812
11761SOL    HW240131   3.861   0.230   4.708
11762SOL     OW40132   3.743   0.368   4.371
11762SOL    HW140133   3.661   0.411   4.410
11762SOL    HW240134   3.715   0.295   4.308
11763SOL     OW40135   4.293   1.275   4.889
11763SOL    HW140136   4.200   1.268   4.852
11763SOL    HW240137   4.304   1.364   4.933
11764SOL     OW40138   5.279   1.511   4.427
11764SOL    HW140139   5.222   1.495   4.508
11764SOL    HW240140   5.220   1.521   4.347
11765SOL     OW40141   4.859   0.703   4.441
11765SOL    HW140142   4.916   0.781   4.416
11765SOL    HW240143   4.799   0.729   4.517
11766SOL     OW40144   5.479   0.607   3.955
11766SOL    HW140145   5.467   0.594   3.856
11766SOL    HW240146   5.449   0.526   4.004
11767SOL     OW40147   4.492   1.144   4.747
11767SOL    HW140148   4.414   1.161   4.807
11767SOL    HW240149   4.526   1.231   4.711
11768SOL     OW40150   4.574   0.798   5.547
11768SOL    HW140151   4.570   0.874   5.612
11768SOL    HW240152   4.596   0.834   5.456
11769SOL     OW40153   4.409   1.012   4.389
11769SOL    HW140154   4.478   0.996   4.459
11769SOL    HW240155   4.336   1.069   4.427
11770SOL     OW40156   4.410   1.161   5.527
11770SOL    HW140157   4.470   1.240   5.541
11770SOL    HW240158   4.324   1.192   5.486
11771SOL     OW40159   4.059   1.435   4.785
11771SOL    HW140160   3.981   1.404   4.732
11771SOL    HW240161   4.117   1.493   4.728
11772SOL     OW40162   5.184   1.505   5.063
11772SOL    HW140163   5.208   1.599   5.089
11772SOL    HW240164   5.168   1.451   5.145
11773SOL     OW40165   4.162   0.392   5.223
11773SOL    HW140166   4.244   0.336   5.232
11773SOL    HW240167   4.081   0.334   5.227
11774SOL     OW40168   5.327   0.447   4.461
11774SOL    HW140169   5.253   0.493   4.411
11774SOL    HW240170   5.378   0.515   4.514
11775SOL     OW40171   3.955   1.713   4.207
11775SOL    HW140172   3.989   1.790   4.261
11775SOL    HW240173   3.999   1.713   4.117
11776SOL     OW40174   4.851   1.341   5.414
11776SOL    HW140175   4.898   1.341   5.502
11776SOL    HW240176   4.803   1.254   5.403
11777SOL     OW40177   3.954   1.434   4.262
11777SOL    HW140178   3.928   1.530   4.262
11777SOL    HW240179   3.883   1.380   4.307
11778SOL     OW40180   3.964   1.091   4.610
11778SOL    HW140181   3.978   1.007   4.662
11778SOL    HW240182   3.909   1.155   4.665
11779SOL     OW40183   4.330   0.964   3.847
11779SOL    HW140184   4.337   1.048   3.793
11779SOL    HW240185   4.376   0.977   3.935
11780SOL     OW40186   3.846   0.643   4.287
11780SOL    HW140187   3.801   0.555   4.304
11780SOL    HW240188   3.845   0.697   4.371
11781SOL     OW40189   5.566   1.767   4.083
11781SOL    HW140190   5.620   1.738   4.163
11781SOL    HW240191   5.596   1.857   4.054
11782SOL     OW40192   3.751   1.596   3.841
11782SOL    HW140193   3.732   1.500   3.862
11782SOL    HW240194   3.718   1.654   3.916
11783SOL     OW40195   5.413   0.922   4.336
11783SOL    HW140196   5.508   0.893   4.344
11783SOL    HW240197   5.405   0.987   4.261
11784SOL     OW40198   5.365   1.108   4.156
11784SOL    HW140199   5.451   1.110   4.104
11784SOL    HW240200   5.379   1.155   4.244
11785SOL     OW40201   3.837   0.737   5.321
11785SOL    HW140202   3.925   0.724   5.366
11785SOL    HW240203   3.824   0.834   5.299
11786SOL     OW40204   4.337   1.365   4.450
11786SOL    HW140205   4.288   1.278   4.459
11786SOL    HW240206   4.314   1.408   4.363
11787SOL     OW40207   5.017   1.228   5.147
11787SOL    HW140208   5.054   1.155   5.089
11787SOL    HW240209   5.069   1.233   5.232
11788SOL     OW40210   4.533   0.004   4.226
11788SOL    HW140211   4.573   0.095   4.217
11788SOL    HW240212   4.433   0.012   4.232
11789SOL     OW40213   3.921   0.976   4.988
11789SOL    HW140214   4.010   0.931   4.974
11789SOL    HW240215   3.848   0.911   4.969
11790SOL     OW40216   5.249   0.999   3.914
11790SOL    HW140217   5.186   0.923   3.927
11790SOL    HW240218   5.297   1.017   4.000
11791SOL     OW40219   4.911   1.792   5.340
11791SOL    HW140220   4.935   1.852   5.264
11791SOL    HW240221   4.918   1.697   5.310
11792SOL     OW40222   4.041   0.251   5.525
11792SOL    HW140223   4.112   0.322   5.531
11792SOL    HW240224   3.953   0.290   5.553
11793SOL     OW40225   5.190   1.417   4.677
11793SOL    HW140226   5.131   1.423   4.757
11793SOL    HW240227   5.175   1.329   4.631
11794SOL     OW40228   5.391   1.714   4.296
11794SOL    HW140229   5.350   1.691   4.208
11794SOL    HW240230   5.373   1.640   4.361
11795SOL     OW40231   5.005   0.345   4.668
11795SOL    HW140232   4.919   0.295   4.655
11795SOL    HW240233   5.067   0.291   4.724
11796SOL     OW40234   5.300   1.662   4.031
11796SOL    HW140235   5.389   1.708   4.034
11796SOL    HW240236   5.279   1.638   3.936
11797SOL     OW40237   4.531   0.605   5.189
11797SOL    HW140238   4.484   0.602   5.278
11797SOL    HW240239   4.480   0.550   5.123
11798SOL     OW40240   4.697   0.890   5.296
11798SOL    HW140241   4.743   0.806   5.267
11798SOL    HW240242   4.641   0.924   5.221
11799SOL     OW40243   4.715   0.410   4.966
11799SOL    HW140244   4.638   0.444   5.020
11799SOL    HW240245   4.681   0.359   4.887
11800SOL     OW40246   4.765   0.701   4.153
11800SOL    HW140247   4.791   0.697   4.249
11800SOL    HW240248   4.680   0.650   4.139
11801SOL     OW40249   3.800   0.811   4.513
11801SOL    HW140250   3.899   0.799   4.522
11801SOL    HW240251   3.776   0.906   4.534
11802SOL     OW40252   4.589   0.348   3.919
11802SOL    HW140253   4.648   0.411   3.870
11802SOL    HW240254   4.608   0.254   3.890
11803SOL     OW40255   5.443   0.585   5.555
11803SOL    HW140256   5.417   0.674   5.519
11803SOL    HW240257   5.441   0.517   5.482
11804SOL     OW40258   5.086   1.144   4.269
11804SOL    HW140259   5.169   1.115   4.221
11804SOL    HW240260   5.037   1.211   4.213
11805SOL     OW40261   4.274   0.196   4.609
11805SOL    HW140262   4.269   0.191   4.709
11805SOL    HW240263   4.276   0.292   4.580
11806SOL     OW40264   4.732   1.456   4.201
11806SOL    HW140265   4.686   1.528   4.149
11806SOL    HW240266   4.728   1.476   4.299
11807SOL     OW40267   4.075   1.801   4.577
11807SOL    HW140268   4.125   1.715   4.583
11807SOL    HW240269   4.140   1.878   4.574
11808SOL     OW40270   5.519   1.066   4.597
11808SOL    HW140271   5.457   1.051   4.521
11808SOL    HW240272   5.467   1.077   4.682
11809SOL     OW40273   4.951   1.550   5.230
11809SOL    HW140274   4.957   1.473   5.294
11809SOL    HW240275   4.899   1.524   5.150
11810SOL     OW40276   5.182   0.735   4.452
11810SOL    HW140277   5.177   0.670   4.527
11810SOL    HW240278   5.262   0.794   4.465
11811SOL     OW40279   4.185   1.266   5.451
11811SOL    HW140280   4.135   1.267   5.365
11811SOL    HW240281   4.122   1.248   5.527
11812SOL     OW40282   4.835   1.776   3.961
11812SOL    HW140283   4.775   1.714   4.011
11812SOL    HW240284   4.866   1.732   3.876
11813SOL     OW40285   3.926   0.285   5.222
11813SOL    HW140286   3.846   0.345   5.209
11813SOL    HW240287   3.916   0.236   5.308
11814SOL     OW40288   5.356   1.377   3.805
11814SOL    HW140289   5.324   1.471   3.795
11814SOL    HW240290   5.280   1.314   3.793
11815SOL     OW40291   4.188   1.743   4.047
11815SOL    HW140292   4.221   1.782   4.133
11815SOL    HW240293   4.264   1.736   3.982
11816SOL     OW40294   4.664   1.698   4.628
11816SOL    HW140295   4.744   1.641   4.649
11816SOL    HW240296   4.615   1.658   4.551
11817SOL     OW40297   4.106   0.700   4.204
11817SOL    HW140298   4.151   0.610   4.201
11817SOL    HW240299   4.012   0.689   4.237
11818SOL     OW40300   5.271   0.222   5.453
11818SOL    HW140301   5.266   0.259   5.545
11818SOL    HW240302   5.199   0.153   5.441
11819SOL     OW40303   4.338   0.122   3.841
11819SOL    HW140304   4.436   0.100   3.848
11819SOL    HW240305   4.307   0.105   3.748
11820SOL     OW40306   4.612   1.514   4.919
11820SOL    HW140307   4.589   1.489   4.825
11820SOL    HW240308   4.673   1.445   4.958
11821SOL     OW40309   4.527   1.402   4.648
11821SOL    HW140310   4.617   1.416   4.606
11821SOL    HW240311   4.456   1.404   4.577
11822SOL     OW40312   4.646   0.503   4.623
11822SOL    HW140313   4.621   0.494   4.527
11822SOL    HW240314   4.694   0.421   4.654
11823SOL     OW40315   4.263   0.064   4.236
11823SOL    HW140316   4.182   0.065   4.294
11823SOL    HW240317   4.266   0.147   4.181
11824SOL     OW40318   5.158   1.188   3.765
11824SOL    HW140319   5.190   1.112   3.822
11824SOL    HW240320   5.066   1.215   3.795
11825SOL     OW40321   4.021   0.035   3.895
11825SOL    HW140322   4.070   0.119   3.874
11825SOL    HW240323   4.083  -0.030   3.940
11826SOL     OW40324   4.659   0.236   4.204
11826SOL    HW140325   4.611   0.277   4.126
11826SOL    HW240326   4.758   0.234   4.185
11827SOL     OW40327   4.951   1.570   4.517
11827SOL    HW140328   4.972   1.644   4.452
11827SOL    HW240329   5.019   1.570   4.590
11828SOL     OW40330   4.183   1.152   4.465
11828SOL    HW140331   4.112   1.125   4.530
11828SOL    HW240332   4.157   1.124   4.372
11829SOL     OW40333   4.995   1.797   4.315
11829SOL    HW140334   5.039   1.861   4.251
11829SOL    HW240335   4.945   1.849   4.385
11830SOL     OW40336   4.756   0.549   3.740
11830SOL    HW140337   4.715   0.631   3.701
11830SOL    HW240338   4.820   0.575   3.813
11831SOL     OW40339   3.802   0.556   5.110
11831SOL    HW140340   3.894   0.555   5.069
11831SOL    HW240341   3.796   0.630   5.177
11832SOL     OW40342   4.285   0.222   4.871
11832SOL    HW140343   4.323   0.138   4.908
11832SOL    HW240344   4.197   0.241   4.915
11833SOL     OW40345   4.590   0.454   4.366
11833SOL    HW140346   4.558   0.526   4.304
11833SOL    HW240347   4.614   0.373   4.313
11834SOL     OW40348   4.741   0.039   4.477
11834SOL    HW140349   4.669   0.044   4.408
11834SOL    HW240350   4.717  -0.030   4.546
11835SOL     OW40351   5.153   1.173   4.591
11835SOL    HW140352   5.098   1.089   4.584
11835SOL    HW240353   5.179   1.202   4.499
11836SOL     OW40354   5.190   0.590   4.716
11836SOL    HW140355   5.160   0.495   4.723
11836SOL    HW240356   5.263   0.606   4.782
11837SOL     OW40357   5.581   0.833   4.101
11837SOL    HW140358   5.623   0.769   4.165
11837SOL    HW240359   5.543   0.782   4.023
11838SOL     OW40360   4.212   1.385   3.898
11838SOL    HW140361   4.125   1.370   3.945
11838SOL    HW240362   4.195   1.411   3.803
11839SOL     OW40363   5.114   0.575   3.802
11839SOL    HW140364   5.060   0.554   3.883
11839SOL    HW240365   5.205   0.534   3.811
11840SOL     OW40366   4.251   0.256   4.052
11840SOL    HW140367   4.278   0.197   3.977
11840SOL    HW240368   4.251   0.351   4.021
11841SOL     OW40369   5.478   1.223   5.312
11841SOL    HW140370   5.569   1.184   5.299
11841SOL    HW240371   5.486   1.319   5.336
11842SOL     OW40372   4.788   1.347   5.064
11842SOL    HW140373   4.708   1.324   5.119
11842SOL    HW240374   4.871   1.321   5.113
11843SOL     OW40375   5.316   1.629   5.349
11843SOL    HW140376   5.343   1.663   5.259
11843SOL    HW240377   5.395   1.591   5.395
11844SOL     OW40378   4.835   1.195   4.824
11844SOL    HW140379   4.795   1.239   4.905
11844SOL    HW240380   4.794   1.232   4.741
11845SOL     OW40381   5.362   1.099   4.803
11845SOL    HW140382   5.367   1.180   4.862
11845SOL    HW240383   5.276   1.101   4.752
11846SOL     OW40384   4.704   1.116   5.443
11846SOL    HW140385   4.605   1.122   5.453
11846SOL    HW240386   4.727   1.036   5.387
11847SOL     OW40387   4.429   1.050   4.092
11847SOL    HW140388   4.415   1.057   4.191
11847SOL    HW240389   4.513   0.999   4.074
11848SOL     OW40390   4.134   0.813   4.975
11848SOL    HW140391   4.220   0.825   5.025
11848SOL    HW240392   4.092   0.726   5.002
11849SOL     OW40393   4.998   0.386   4.986
11849SOL    HW140394   5.019   0.460   5.050
11849SOL    HW240395   4.909   0.403   4.943
11850SOL     OW40396   4.091   1.100   4.225
11850SOL    HW140397   4.084   1.183   4.169
11850SOL    HW240398   4.095   1.020   4.165
11851SOL     OW40399   4.290   0.537   4.589
11851SOL    HW140400   4.302   0.603   4.515
11851SOL    HW240401   4.336   0.571   4.672
11852SOL     OW40402   4.976   1.348   4.112
11852SOL    HW140403   5.026   1.425   4.152
11852SOL    HW240404   4.881   1.350   4.144
11853SOL     OW40405   4.996   1.445   4.866
11853SOL    HW140406   5.043   1.458   4.953
11853SOL    HW240407   4.930   1.371   4.875
11854SOL     OW40408   5.306   0.639   4.196
11854SOL    HW140409   5.275   0.700   4.269
11854SOL    HW240410   5.356   0.691   4.127
11855SOL     OW40411   4.126   0.751   5.322
11855SOL    HW140412   4.194   0.806   5.275
11855SOL    HW240413   4.166   0.663   5.349
11856SOL     OW40414   4.228   0.050   5.464
11856SOL    HW140415   4.186  -0.007   5.394
11856SOL    HW240416   4.162   0.119   5.496
11857SOL     OW40417   4.297   0.870   4.753
11857SOL    HW140418   4.341   0.959   4.744
11857SOL    HW240419   4.234   0.870   4.830
11858SOL     OW40420   5.084   0.862   4.769
11858SOL    HW140421   5.009   0.862   4.703
11858SOL    HW240422   5.121   0.770   4.778
11859SOL     OW40423   4.933   0.525   3.999
11859SOL    HW140424   4.946   0.441   4.053
11859SOL    HW240425   4.904   0.599   4.059
11860SOL     OW40426   4.031   0.213   4.955
11860SOL    HW140427   4.008   0.250   5.045
11860SOL    HW240428   4.001   0.118   4.949
11861SOL     OW40429   3.761   1.310   5.006
11861SOL    HW140430   3.814   1.261   5.074
11861SOL    HW240431   3.783   1.408   5.011
11862SOL     OW40432   4.456   0.634   4.788
11862SOL    HW140433   4.515   0.608   4.712
11862SOL    HW240434   4.428   0.730   4.777
11863SOL     OW40435   5.452   0.935   5.578
11863SOL    HW140436   5.406   0.928   5.489
11863SOL    HW240437   5.390   0.979   5.644
11864SOL     OW40438   4.031   0.063   4.342
11864SOL    HW140439   4.020   0.157   4.375
11864SOL    HW240440   4.026   0.000   4.419
11865SOL     OW40441   5.346   0.367   4.098
11865SOL    HW140442   5.348   0.291   4.162
11865SOL    HW240443   5.298   0.444   4.138
11866SOL     OW40444   4.747   0.766   4.690
11866SOL    HW140445   4.762   0.787   4.786
11866SOL    HW240446   4.717   0.671   4.681
11867SOL     OW40447   4.704   1.573   5.424
11867SOL    HW140448   4.684   1.617   5.336
11867SOL    HW240449   4.743   1.482   5.408
11868SOL     OW40450   5.583   1.518   5.329
11868SOL    HW140451   5.597   1.545   5.234
11868SOL    HW240452   5.666   1.540   5.382
11869SOL     OW40453   4.074   0.898   5.528
11869SOL    HW140454   4.150   0.942   5.576
11869SOL    HW240455   4.109   0.851   5.446
11870SOL     OW40456   5.264   0.274   3.849
11870SOL    HW140457   5.203   0.199   3.872
11870SOL    HW240458   5.286   0.326   3.932
11871SOL     OW40459   5.027   0.838   3.766
11871SOL    HW140460   5.061   0.745   3.781
11871SOL    HW240461   5.045   0.865   3.671
11872SOL     OW40462   4.792   1.333   4.573
11872SOL    HW140463   4.799   1.249   4.518
11872SOL    HW240464   4.854   1.402   4.537
11873SOL     OW40465   4.043   0.810   4.673
11873SOL    HW140466   4.136   0.846   4.678
11873SOL    HW240467   4.037   0.725   4.725
11874SOL     OW40468   4.063   0.509   4.730
11874SOL    HW140469   4.011   0.426   4.713
11874SOL    HW240470   4.140   0.514   4.666
11875SOL     OW40471   4.862   0.380   5.402
11875SOL    HW140472   4.817   0.443   5.466
11875SOL    HW240473   4.955   0.411   5.385
11876SOL     OW40474   3.732   1.326   3.924
11876SOL    HW140475   3.639   1.347   3.893
11876SOL    HW240476   3.742   1.227   3.937
11877SOL     OW40477   3.812   1.801   4.651
11877SOL    HW140478   3.770   1.715   4.624
11877SOL    HW240479   3.906   1.804   4.617
11878SOL     OW40480   4.228   1.568   4.634
11878SOL    HW140481   4.294   1.642   4.643
11878SOL    HW240482   4.272   1.489   4.592
11879SOL     OW40483   3.764   0.544   4.838
11879SOL    HW140484   3.849   0.511   4.797
11879SOL    HW240485   3.777   0.559   4.936
11880SOL     OW40486   3.913   0.520   5.446
11880SOL    HW140487   3.972   0.480   5.376
11880SOL    HW240488   3.855   0.591   5.405
11881SOL     OW40489   4.539   0.572   4.049
11881SOL    HW140490   4.546   0.483   4.003
11881SOL    HW240491   4.445   0.606   4.041
11882SOL     OW40492   5.381   0.604   4.930
11882SOL    HW140493   5.343   0.535   4.992
11882SOL    HW240494   5.463   0.568   4.886
11883SOL     OW40495   4.395   0.464   4.993
11883SOL    HW140496   4.361   0.375   4.963
11883SOL    HW240497   4.421   0.518   4.913
11884SOL     OW40498   4.654   1.678   5.189
11884SOL    HW140499   4.630   1.660   5.094
11884SOL    HW240500   4.684   1.772   5.199
11885SOL     OW40501   3.883   1.137   5.190
11885SOL    HW140502   3.905   1.076   5.266
11885SOL    HW240503   3.893   1.088   5.104
11886SOL     OW40504   5.026   0.855   4.033
11886SOL    HW140505   4.940   0.824   4.075
11886SOL    HW240506   5.022   0.841   3.934
11887SOL     OW40507   5.483   1.747   4.878
11887SOL    HW140508   5.544   1.777   4.805
11887SOL    HW240509   5.445   1.658   4.856
11888SOL     OW40510   4.976   1.731   4.852
11888SOL    HW140511   5.060   1.736   4.798
11888SOL    HW240512   4.953   1.635   4.870
11889SOL     OW40513   3.807   1.258   4.746
11889SOL    HW140514   3.802   1.257   4.846
11889SOL    HW240515   3.724   1.217   4.708
11890SOL     OW40516   4.412   1.662   5.440
11890SOL    HW140517   4.356   1.743   5.449
11890SOL    HW240518   4.464   1.666   5.354
11891SOL     OW40519   5.112   1.573   4.201
11891SOL    HW140520   5.179   1.585   4.127
11891SOL    HW240521   5.072   1.662   4.224
11892SOL     OW40522   3.854   1.794   5.575
11892SOL    HW140523   3.813   1.720   5.628
11892SOL    HW240524   3.918   1.845   5.633
11893SOL     OW40525   5.004   0.927   4.396
11893SOL    HW140526   5.064   0.846   4.398
11893SOL    HW240527   5.044   0.996   4.336
11894SOL     OW40528   4.554   1.273   5.146
11894SOL    HW140529   4.549   1.306   5.241
11894SOL    HW240530   4.468   1.292   5.100
11895SOL     OW40531   4.396   1.616   3.878
11895SOL    HW140532   4.405   1.626   3.779
11895SOL    HW240533   4.356   1.527   3.899
11896SOL     OW40534   5.374   1.720   5.118
11896SOL    HW140535   5.427   1.730   5.034
11896SOL    HW240536   5.347   1.810   5.152
11897SOL     OW40537   3.987   0.326   4.444
11897SOL    HW140538   3.908   0.377   4.410
11897SOL    HW240539   3.978   0.311   4.542
11898SOL     OW40540   4.918   1.612   3.755
11898SOL    HW140541   4.924   1.519   3.792
11898SOL    HW240542   4.859   1.612   3.675
11899SOL     OW40543   4.546   1.002   5.096
11899SOL    HW140544   4.586   1.001   5.004
11899SOL    HW240545   4.556   1.094   5.136
11900SOL     OW40546   4.640   0.910   4.015
11900SOL    HW140547   4.703   0.948   3.947
11900SOL    HW240548   4.680   0.827   4.054
11901SOL     OW40549   5.228   1.607   3.768
11901SOL    HW140550   5.136   1.644   3.775
11901SOL    HW240551   5.266   1.627   3.678
11902SOL     OW40552   4.096   1.288   5.214
11902SOL    HW140553   4.083   1.381   5.180
11902SOL    HW240554   4.012   1.236   5.201
11903SOL     OW40555   5.338   1.292   5.013
11903SOL    HW140556   5.398   1.295   5.093
11903SOL    HW240557   5.263   1.356   5.026
11904SOL     OW40558   4.763   1.098   4.420
11904SOL    HW140559   4.693   1.051   4.474
11904SOL    HW240560   4.822   1.030   4.377
11905SOL     OW40561   4.314   1.487   4.215
11905SOL    HW140562   4.356   1.429   4.145
11905SOL    HW240563   4.270   1.566   4.171
11906SOL     OW40564   5.433   0.385   5.105
11906SOL    HW140565   5.506   0.454   5.109
11906SOL    HW240566   5.461   0.310   5.046
11907SOL     OW40567   3.979   1.348   4.014
11907SOL    HW140568   3.883   1.349   3.987
11907SOL    HW240569   3.991   1.401   4.098
11908SOL     OW40570   3.829   1.013   5.450
11908SOL    HW140571   3.752   0.980   5.504
11908SOL    HW240572   3.914   0.983   5.492
11909SOL     OW40573   3.799   0.345   3.757
11909SOL    HW140574   3.707   0.317   3.728
11909SOL    HW240575   3.830   0.422   3.701
11910SOL     OW40576   3.796   0.166   4.042
11910SOL    HW140577   3.779   0.249   3.988
11910SOL    HW240578   3.886   0.129   4.020
11911SOL     OW40579   4.337   0.842   5.155
11911SOL    HW140580   4.393   0.923   5.138
11911SOL    HW240581   4.396   0.762   5.158
11912SOL     OW40582   5.217   1.767   4.683
11912SOL    HW140583   5.250   1.831   4.614
11912SOL    HW240584   5.283   1.761   4.758
11913SOL     OW40585   4.440   0.565   5.432
11913SOL    HW140586   4.459   0.630   5.506
11913SOL    HW240587   4.500   0.485   5.441
11914SOL     OW40588   5.174   1.220   5.357
11914SOL    HW140589   5.165   1.210   5.456
11914SOL    HW240590   5.270   1.213   5.331
11915SOL     OW40591   5.398   0.883   4.978
11915SOL    HW140592   5.371   0.794   4.941
11915SOL    HW240593   5.399   0.951   4.905
11916SOL     OW40594   4.949   0.325   4.173
11916SOL    HW140595   5.014   0.251   4.162
11916SOL    HW240596   4.969   0.375   4.257
11917SOL     OW40597   4.318   0.745   4.376
11917SOL    HW140598   4.368   0.830   4.357
11917SOL    HW240599   4.230   0.747   4.328
11918SOL     OW40600   5.501   0.342   5.366
11918SOL    HW140601   5.484   0.373   5.272
11918SOL    HW240602   5.417   0.305   5.404
11919SOL     OW40603   5.454   0.934   5.241
11919SOL    HW140604   5.492   1.025   5.256
11919SOL    HW240605   5.446   0.917   5.142
11920SOL     OW40606   4.385   1.790   4.677
11920SOL    HW140607   4.339   1.878   4.664
11920SOL    HW240608   4.484   1.802   4.670
11921SOL     OW40609   4.583   0.956   4.585
11921SOL    HW140610   4.637   0.887   4.633
11921SOL    HW240611   4.551   1.025   4.651
11922SOL     OW40612   5.585   1.569   4.575
11922SOL    HW140613   5.514   1.557   4.505
11922SOL    HW240614   5.586   1.490   4.635
11923SOL     OW40615   3.945   1.314   5.568
11923SOL    HW140616   3.880   1.241   5.547
11923SOL    HW240617   3.949   1.328   5.666
11924SOL     OW40618   3.803   1.240   4.377
11924SOL    HW140619   3.802   1.193   4.465
11924SOL    HW240620   3.885   1.212   4.326
11925SOL     OW40621   4.396   1.391   5.348
11925SOL    HW140622   4.318   1.341   5.386
11925SOL    HW240623   4.393   1.486   5.379
11926SOL     OW40624   4.152   0.424   4.244
11926SOL    HW140625   4.182   0.352   4.182
11926SOL    HW240626   4.113   0.384   4.327
11927SOL     OW40627   5.429   1.487   4.828
11927SOL    HW140628   5.336   1.462   4.801
11927SOL    HW240629   5.455   1.437   4.910
11928SOL     OW40630   4.041   0.547   5.004
11928SOL    HW140631   4.079   0.488   5.076
11928SOL    HW240632   4.081   0.521   4.916
11929SOL     OW40633   4.536   1.586   4.411
11929SOL    HW140634   4.568   1.596   4.317
11929SOL    HW240635   4.457   1.524   4.413
11930SOL     OW40636   5.076   0.052   3.892
11930SOL    HW140637   5.111   0.011   3.808
11930SOL    HW240638   4.986   0.014   3.912
11931SOL     OW40639   5.024   0.453   4.415
11931SOL    HW140640   4.965   0.533   4.419
11931SOL    HW240641   5.039   0.418   4.508
11932SOL     OW40642   5.317   0.221   4.606
11932SOL    HW140643   5.233   0.220   4.660
11932SOL    HW240644   5.319   0.304   4.550
11933SOL     OW40645   3.763   1.077   4.024
11933SOL    HW140646   3.862   1.066   4.015
11933SOL    HW240647   3.723   0.991   4.056
11934SOL     OW40648   4.599   1.646   4.061
11934SOL    HW140649   4.522   1.611   4.007
11934SOL    HW240650   4.567   1.717   4.123
11935SOL     OW40651   3.954   0.628   5.699
11935SOL    HW140652   3.861   0.626   5.736
11935SOL    HW240653   3.955   0.589   5.607
11936SOL     OW40654   3.949   0.275   6.582
11936SOL    HW140655   3.984   0.258   6.674
11936SOL    HW240656   3.861   0.230   6.570
11937SOL     OW40657   3.743   0.368   6.233
11937SOL    HW140658   3.661   0.411   6.272
11937SOL    HW240659   3.715   0.295   6.170
11938SOL     OW40660   4.293   1.275   6.751
11938SOL    HW140661   4.200   1.268   6.714
11938SOL    HW240662   4.304   1.364   6.795
11939SOL     OW40663   4.859   0.703   6.303
11939SOL    HW140664   4.916   0.781   6.278
11939SOL    HW240665   4.799   0.729   6.379
11940SOL     OW40666   5.479   0.607   5.817
11940SOL    HW140667   5.467   0.594   5.718
11940SOL    HW240668   5.449   0.526   5.866
11941SOL     OW40669   4.492   1.144   6.609
11941SOL    HW140670   4.414   1.161   6.669
11941SOL    HW240671   4.526   1.231   6.573
11942SOL     OW40672   4.574   0.798   7.409
11942SOL    HW140673   4.570   0.874   7.474
11942SOL    HW240674   4.596   0.834   7.318
11943SOL     OW40675   4.409   1.012   6.251
11943SOL    HW140676   4.478   0.996   6.321
11943SOL    HW240677   4.336   1.069   6.289
11944SOL     OW40678   4.410   1.161   7.389
11944SOL    HW140679   4.470   1.240   7.403
11944SOL    HW240680   4.324   1.192   7.348
11945SOL     OW40681   4.059   1.435   6.647
11945SOL    HW140682   3.981   1.404   6.594
11945SOL    HW240683   4.117   1.493   6.590
11946SOL     OW40684   5.184   1.505   6.925
11946SOL    HW140685   5.208   1.599   6.951
11946SOL    HW240686   5.168   1.451   7.007
11947SOL     OW40687   4.162   0.392   7.085
11947SOL    HW140688   4.244   0.336   7.094
11947SOL    HW240689   4.081   0.334   7.089
11948SOL     OW40690   5.327   0.447   6.323
11948SOL    HW140691   5.253   0.493   6.273
11948SOL    HW240692   5.378   0.515   6.376
11949SOL     OW40693   3.955   1.713   6.069
11949SOL    HW140694   3.989   1.790   6.123
11949SOL    HW240695   3.999   1.713   5.979
11950SOL     OW40696   4.851   1.341   7.276
11950SOL    HW140697   4.898   1.341   7.364
11950SOL    HW240698   4.803   1.254   7.265
11951SOL     OW40699   3.954   1.434   6.124
11951SOL    HW140700   3.928   1.530   6.124
11951SOL    HW240701   3.883   1.380   6.169
11952SOL     OW40702   3.964   1.091   6.472
11952SOL    HW140703   3.978   1.007   6.524
11952SOL    HW240704   3.909   1.155   6.527
11953SOL     OW40705   4.344   1.786   7.025
11953SOL    HW140706   4.252   1.769   7.060
11953SOL    HW240707   4.372   1.878   7.051
11954SOL     OW40708   4.330   0.964   5.709
11954SOL    HW140709   4.337   1.048   5.655
11954SOL    HW240710   4.376   0.977   5.797
11955SOL     OW40711   5.318   0.114   7.066
11955SOL    HW140712   5.300   0.181   6.994
11955SOL    HW240713   5.315   0.160   7.155
11956SOL     OW40714   3.846   0.643   6.149
11956SOL    HW140715   3.801   0.555   6.166
11956SOL    HW240716   3.845   0.697   6.233
11957SOL     OW40717   5.566   1.767   5.945
11957SOL    HW140718   5.620   1.738   6.025
11957SOL    HW240719   5.596   1.857   5.916
11958SOL     OW40720   3.751   1.596   5.703
11958SOL    HW140721   3.732   1.500   5.724
11958SOL    HW240722   3.718   1.654   5.778
11959SOL     OW40723   5.413   0.922   6.198
11959SOL    HW140724   5.508   0.893   6.206
11959SOL    HW240725   5.405   0.987   6.123
11960SOL     OW40726   5.365   1.108   6.018
11960SOL    HW140727   5.451   1.110   5.966
11960SOL    HW240728   5.379   1.155   6.106
11961SOL     OW40729   3.837   0.737   7.183
11961SOL    HW140730   3.925   0.724   7.228
11961SOL    HW240731   3.824   0.834   7.161
11962SOL     OW40732   4.337   1.365   6.312
11962SOL    HW140733   4.288   1.278   6.321
11962SOL    HW240734   4.314   1.408   6.225
11963SOL     OW40735   5.017   1.228   7.009
11963SOL    HW140736   5.054   1.155   6.951
11963SOL    HW240737   5.069   1.233   7.094
11964SOL     OW40738   4.533   0.004   6.088
11964SOL    HW140739   4.573   0.095   6.079
11964SOL    HW240740   4.433   0.012   6.094
11965SOL     OW40741   3.921   0.976   6.850
11965SOL    HW140742   4.010   0.931   6.836
11965SOL    HW240743   3.848   0.911   6.831
11966SOL     OW40744   5.249   0.999   5.776
11966SOL    HW140745   5.186   0.923   5.789
11966SOL    HW240746   5.297   1.017   5.862
11967SOL     OW40747   4.911   1.792   7.202
11967SOL    HW140748   4.935   1.852   7.126
11967SOL    HW240749   4.918   1.697   7.172
11968SOL     OW40750   4.041   0.251   7.387
11968SOL    HW140751   4.112   0.322   7.393
11968SOL    HW240752   3.953   0.290   7.415
11969SOL     OW40753   5.190   1.417   6.539
11969SOL    HW140754   5.131   1.423   6.619
11969SOL    HW240755   5.175   1.329   6.493
11970SOL     OW40756   4.322   0.729   5.856
11970SOL    HW140757   4.346   0.798   5.788
11970SOL    HW240758   4.244   0.762   5.910
11971SOL     OW40759   5.005   0.345   6.530
11971SOL    HW140760   4.919   0.295   6.517
11971SOL    HW240761   5.067   0.291   6.586
11972SOL     OW40762   5.118   0.469   7.260
11972SOL    HW140763   5.098   0.512   7.348
11972SOL    HW240764   5.196   0.407   7.269
11973SOL     OW40765   4.715   0.410   6.828
11973SOL    HW140766   4.638   0.444   6.882
11973SOL    HW240767   4.681   0.359   6.749
11974SOL     OW40768   4.765   0.701   6.015
11974SOL    HW140769   4.791   0.697   6.111
11974SOL    HW240770   4.680   0.650   6.001
11975SOL     OW40771   3.800   0.811   6.375
11975SOL    HW140772   3.899   0.799   6.384
11975SOL    HW240773   3.776   0.906   6.396
11976SOL     OW40774   3.854   1.821   7.157
11976SOL    HW140775   3.844   1.806   7.256
11976SOL    HW240776   3.768   1.857   7.121
11977SOL     OW40777   5.443   0.585   7.417
11977SOL    HW140778   5.417   0.674   7.381
11977SOL    HW240779   5.441   0.517   7.344
11978SOL     OW40780   5.086   1.144   6.131
11978SOL    HW140781   5.169   1.115   6.083
11978SOL    HW240782   5.037   1.211   6.075
11979SOL     OW40783   4.274   0.196   6.471
11979SOL    HW140784   4.269   0.191   6.571
11979SOL    HW240785   4.276   0.292   6.442
11980SOL     OW40786   4.075   1.801   6.439
11980SOL    HW140787   4.125   1.715   6.445
11980SOL    HW240788   4.140   1.878   6.436
11981SOL     OW40789   5.519   1.066   6.459
11981SOL    HW140790   5.457   1.051   6.383
11981SOL    HW240791   5.467   1.077   6.544
11982SOL     OW40792   4.045   0.943   5.828
11982SOL    HW140793   4.127   0.982   5.786
11982SOL    HW240794   4.018   0.861   5.779
11983SOL     OW40795   5.182   0.735   6.314
11983SOL    HW140796   5.177   0.670   6.389
11983SOL    HW240797   5.262   0.794   6.327
11984SOL     OW40798   4.185   1.266   7.313
11984SOL    HW140799   4.135   1.267   7.227
11984SOL    HW240800   4.122   1.248   7.389
11985SOL     OW40801   3.926   0.285   7.084
11985SOL    HW140802   3.846   0.345   7.071
11985SOL    HW240803   3.916   0.236   7.170
11986SOL     OW40804   5.356   1.377   5.667
11986SOL    HW140805   5.324   1.471   5.657
11986SOL    HW240806   5.280   1.314   5.655
11987SOL     OW40807   4.188   1.743   5.909
11987SOL    HW140808   4.221   1.782   5.995
11987SOL    HW240809   4.264   1.736   5.844
11988SOL     OW40810   3.973   1.785   6.827
11988SOL    HW140811   4.030   1.720   6.877
11988SOL    HW240812   3.957   1.752   6.734
11989SOL     OW40813   4.664   1.698   6.490
11989SOL    HW140814   4.744   1.641   6.511
11989SOL    HW240815   4.615   1.658   6.413
11990SOL     OW40816   4.106   0.700   6.066
11990SOL    HW140817   4.151   0.610   6.063
11990SOL    HW240818   4.012   0.689   6.099
11991SOL     OW40819   5.271   0.222   7.315
11991SOL    HW140820   5.266   0.259   7.407
11991SOL    HW240821   5.199   0.153   7.303
11992SOL     OW40822   4.505   0.264   7.335
11992SOL    HW140823   4.572   0.203   7.378
11992SOL    HW240824   4.432   0.283   7.400
11993SOL     OW40825   5.075   0.590   7.019
11993SOL    HW140826   5.103   0.547   7.104
11993SOL    HW240827   5.100   0.686   7.020
11994SOL     OW40828   4.527   1.402   6.510
11994SOL    HW140829   4.617   1.416   6.468
11994SOL    HW240830   4.456   1.404   6.439
11995SOL     OW40831   4.646   0.503   6.485
11995SOL    HW140832   4.621   0.494   6.389
11995SOL    HW240833   4.694   0.421   6.516
11996SOL     OW40834   4.263   0.064   6.098
11996SOL    HW140835   4.182   0.065   6.156
11996SOL    HW240836   4.266   0.147   6.043
11997SOL     OW40837   5.158   1.188   5.627
11997SOL    HW140838   5.190   1.112   5.684
11997SOL    HW240839   5.066   1.215   5.657
11998SOL     OW40840   4.021   0.035   5.757
11998SOL    HW140841   4.070   0.119   5.736
11998SOL    HW240842   4.083  -0.030   5.802
11999SOL     OW40843   4.659   0.236   6.066
11999SOL    HW140844   4.611   0.277   5.988
11999SOL    HW240845   4.758   0.234   6.047
12000SOL     OW40846   4.800   0.683   7.050
12000SOL    HW140847   4.720   0.622   7.053
12000SOL    HW240848   4.881   0.630   7.026
12001SOL     OW40849   4.183   1.152   6.327
12001SOL    HW140850   4.112   1.125   6.392
12001SOL    HW240851   4.157   1.124   6.234
12002SOL     OW40852   4.756   0.549   5.602
12002SOL    HW140853   4.715   0.631   5.563
12002SOL    HW240854   4.820   0.575   5.675
12003SOL     OW40855   3.802   0.556   6.972
12003SOL    HW140856   3.894   0.555   6.931
12003SOL    HW240857   3.796   0.630   7.039
12004SOL     OW40858   4.285   0.222   6.733
12004SOL    HW140859   4.323   0.138   6.770
12004SOL    HW240860   4.197   0.241   6.777
12005SOL     OW40861   4.590   0.454   6.228
12005SOL    HW140862   4.558   0.526   6.166
12005SOL    HW240863   4.614   0.373   6.175
12006SOL     OW40864   5.153   1.173   6.453
12006SOL    HW140865   5.098   1.089   6.446
12006SOL    HW240866   5.179   1.202   6.361
12007SOL     OW40867   5.190   0.590   6.578
12007SOL    HW140868   5.160   0.495   6.585
12007SOL    HW240869   5.263   0.606   6.644
12008SOL     OW40870   5.581   0.833   5.963
12008SOL    HW140871   5.623   0.769   6.027
12008SOL    HW240872   5.543   0.782   5.885
12009SOL     OW40873   4.212   1.385   5.760
12009SOL    HW140874   4.125   1.370   5.807
12009SOL    HW240875   4.195   1.411   5.665
12010SOL     OW40876   5.388   1.280   6.243
12010SOL    HW140877   5.487   1.288   6.257
12010SOL    HW240878   5.343   1.364   6.274
12011SOL     OW40879   5.114   0.575   5.664
12011SOL    HW140880   5.060   0.554   5.745
12011SOL    HW240881   5.205   0.534   5.673
12012SOL     OW40882   4.251   0.256   5.914
12012SOL    HW140883   4.278   0.197   5.839
12012SOL    HW240884   4.251   0.351   5.883
12013SOL     OW40885   5.478   1.223   7.174
12013SOL    HW140886   5.569   1.184   7.161
12013SOL    HW240887   5.486   1.319   7.198
12014SOL     OW40888   5.316   1.629   7.211
12014SOL    HW140889   5.343   1.663   7.121
12014SOL    HW240890   5.395   1.591   7.257
12015SOL     OW40891   5.362   1.099   6.665
12015SOL    HW140892   5.367   1.180   6.724
12015SOL    HW240893   5.276   1.101   6.614
12016SOL     OW40894   4.639   0.089   6.988
12016SOL    HW140895   4.664   0.069   6.893
12016SOL    HW240896   4.711   0.145   7.030
12017SOL     OW40897   4.704   1.116   7.305
12017SOL    HW140898   4.605   1.122   7.315
12017SOL    HW240899   4.727   1.036   7.249
12018SOL     OW40900   4.429   1.050   5.954
12018SOL    HW140901   4.415   1.057   6.053
12018SOL    HW240902   4.513   0.999   5.936
12019SOL     OW40903   4.134   0.813   6.837
12019SOL    HW140904   4.220   0.825   6.887
12019SOL    HW240905   4.092   0.726   6.864
12020SOL     OW40906   4.998   0.386   6.848
12020SOL    HW140907   5.019   0.460   6.912
12020SOL    HW240908   4.909   0.403   6.805
12021SOL     OW40909   3.788   1.564   6.917
12021SOL    HW140910   3.742   1.646   6.883
12021SOL    HW240911   3.886   1.583   6.926
12022SOL     OW40912   4.091   1.100   6.087
12022SOL    HW140913   4.084   1.183   6.031
12022SOL    HW240914   4.095   1.020   6.027
12023SOL     OW40915   4.290   0.537   6.451
12023SOL    HW140916   4.302   0.603   6.377
12023SOL    HW240917   4.336   0.571   6.534
12024SOL     OW40918   5.306   0.639   6.058
12024SOL    HW140919   5.275   0.700   6.131
12024SOL    HW240920   5.356   0.691   5.989
12025SOL     OW40921   4.078   1.510   6.915
12025SOL    HW140922   4.057   1.466   6.828
12025SOL    HW240923   4.175   1.536   6.918
12026SOL     OW40924   4.126   0.751   7.184
12026SOL    HW140925   4.194   0.806   7.137
12026SOL    HW240926   4.166   0.663   7.211
12027SOL     OW40927   5.311   0.779   7.256
12027SOL    HW140928   5.219   0.817   7.251
12027SOL    HW240929   5.371   0.826   7.191
12028SOL     OW40930   4.737   0.105   7.356
12028SOL    HW140931   4.743   0.190   7.304
12028SOL    HW240932   4.769   0.029   7.299
12029SOL     OW40933   4.228   0.050   7.326
12029SOL    HW140934   4.186  -0.007   7.256
12029SOL    HW240935   4.162   0.119   7.358
12030SOL     OW40936   4.297   0.870   6.615
12030SOL    HW140937   4.341   0.959   6.606
12030SOL    HW240938   4.234   0.870   6.692
12031SOL     OW40939   5.084   0.862   6.631
12031SOL    HW140940   5.009   0.862   6.565
12031SOL    HW240941   5.121   0.770   6.640
12032SOL     OW40942   4.933   0.525   5.861
12032SOL    HW140943   4.946   0.441   5.915
12032SOL    HW240944   4.904   0.599   5.921
12033SOL     OW40945   4.031   0.213   6.817
12033SOL    HW140946   4.008   0.250   6.907
12033SOL    HW240947   4.001   0.118   6.811
12034SOL     OW40948   3.761   1.310   6.868
12034SOL    HW140949   3.814   1.261   6.936
12034SOL    HW240950   3.783   1.408   6.873
12035SOL     OW40951   4.456   0.634   6.650
12035SOL    HW140952   4.515   0.608   6.574
12035SOL    HW240953   4.428   0.730   6.639
12036SOL     OW40954   4.031   0.063   6.204
12036SOL    HW140955   4.020   0.157   6.237
12036SOL    HW240956   4.026   0.000   6.281
12037SOL     OW40957   5.346   0.367   5.960
12037SOL    HW140958   5.348   0.291   6.024
12037SOL    HW240959   5.298   0.444   6.000
12038SOL     OW40960   4.747   0.766   6.552
12038SOL    HW140961   4.762   0.787   6.648
12038SOL    HW240962   4.717   0.671   6.543
12039SOL     OW40963   4.704   1.573   7.286
12039SOL    HW140964   4.684   1.617   7.198
12039SOL    HW240965   4.743   1.482   7.270
12040SOL     OW40966   5.583   1.518   7.191
12040SOL    HW140967   5.597   1.545   7.096
12040SOL    HW240968   5.666   1.540   7.244
12041SOL     OW40969   4.074   0.898   7.390
12041SOL    HW140970   4.150   0.942   7.438
12041SOL    HW240971   4.109   0.851   7.308
12042SOL     OW40972   5.264   0.274   5.711
12042SOL    HW140973   5.203   0.199   5.734
12042SOL    HW240974   5.286   0.326   5.794
12043SOL     OW40975   5.027   0.838   5.628
12043SOL    HW140976   5.061   0.745   5.643
12043SOL    HW240977   5.045   0.865   5.533
12044SOL     OW40978   4.792   1.333   6.435
12044SOL    HW140979   4.799   1.249   6.380
12044SOL    HW240980   4.854   1.402   6.399
12045SOL     OW40981   4.043   0.810   6.535
12045SOL    HW140982   4.136   0.846   6.540
12045SOL    HW240983   4.037   0.725   6.587
12046SOL     OW40984   4.063   0.509   6.592
12046SOL    HW140985   4.011   0.426   6.575
12046SOL    HW240986   4.140   0.514   6.528
12047SOL     OW40987   4.862   0.380   7.264
12047SOL    HW140988   4.817   0.443   7.328
12047SOL    HW240989   4.955   0.411   7.247
12048SOL     OW40990   4.884   0.207   7.063
12048SOL    HW140991   4.884   0.271   7.140
12048SOL    HW240992   4.912   0.255   6.980
12049SOL     OW40993   3.732   1.326   5.786
12049SOL    HW140994   3.639   1.347   5.755
12049SOL    HW240995   3.742   1.227   5.799
12050SOL     OW40996   3.812   1.801   6.513
12050SOL    HW140997   3.770   1.715   6.486
12050SOL    HW240998   3.906   1.804   6.479
12051SOL     OW40999   4.228   1.568   6.496
12051SOL    HW141000   4.294   1.642   6.505
12051SOL    HW241001   4.272   1.489   6.454
12052SOL     OW41002   3.764   0.544   6.700
12052SOL    HW141003   3.849   0.511   6.659
12052SOL    HW241004   3.777   0.559   6.798
12053SOL     OW41005   3.913   0.520   7.308
12053SOL    HW141006   3.972   0.480   7.238
12053SOL    HW241007   3.855   0.591   7.267
12054SOL     OW41008   4.539   0.572   5.911
12054SOL    HW141009   4.546   0.483   5.865
12054SOL    HW241010   4.445   0.606   5.903
12055SOL     OW41011   5.381   0.604   6.792
12055SOL    HW141012   5.343   0.535   6.854
12055SOL    HW241013   5.463   0.568   6.748
12056SOL     OW41014   4.395   0.464   6.855
12056SOL    HW141015   4.361   0.375   6.825
12056SOL    HW241016   4.421   0.518   6.775
12057SOL     OW41017   4.197   0.500   5.777
12057SOL    HW141018   4.258   0.580   5.781
12057SOL    HW241019   4.102   0.531   5.784
12058SOL     OW41020   3.883   1.137   7.052
12058SOL    HW141021   3.905   1.076   7.128
12058SOL    HW241022   3.893   1.088   6.966
12059SOL     OW41023   5.071   1.059   6.820
12059SOL    HW141024   5.095   0.996   6.746
12059SOL    HW241025   4.981   1.099   6.802
12060SOL     OW41026   5.026   0.855   5.895
12060SOL    HW141027   4.940   0.824   5.937
12060SOL    HW241028   5.022   0.841   5.796
12061SOL     OW41029   5.483   1.747   6.740
12061SOL    HW141030   5.544   1.777   6.667
12061SOL    HW241031   5.445   1.658   6.718
12062SOL     OW41032   3.807   1.258   6.608
12062SOL    HW141033   3.802   1.257   6.708
12062SOL    HW241034   3.724   1.217   6.570
12063SOL     OW41035   4.412   1.662   7.302
12063SOL    HW141036   4.356   1.743   7.311
12063SOL    HW241037   4.464   1.666   7.216
12064SOL     OW41038   5.450   0.135   6.109
12064SOL    HW141039   5.523   0.118   6.042
12064SOL    HW241040   5.419   0.048   6.147
12065SOL     OW41041   3.854   1.794   7.437
12065SOL    HW141042   3.813   1.720   7.490
12065SOL    HW241043   3.918   1.845   7.495
12066SOL     OW41044   5.004   0.927   6.258
12066SOL    HW141045   5.064   0.846   6.260
12066SOL    HW241046   5.044   0.996   6.198
12067SOL     OW41047   4.396   1.616   5.740
12067SOL    HW141048   4.405   1.626   5.641
12067SOL    HW241049   4.356   1.527   5.761
12068SOL     OW41050   5.374   1.720   6.980
12068SOL    HW141051   5.427   1.730   6.896
12068SOL    HW241052   5.347   1.810   7.014
12069SOL     OW41053   3.987   0.326   6.306
12069SOL    HW141054   3.908   0.377   6.272
12069SOL    HW241055   3.978   0.311   6.404
12070SOL     OW41056   4.640   0.910   5.877
12070SOL    HW141057   4.703   0.948   5.809
12070SOL    HW241058   4.680   0.827   5.916
12071SOL     OW41059   4.096   1.288   7.076
12071SOL    HW141060   4.083   1.381   7.042
12071SOL    HW241061   4.012   1.236   7.063
12072SOL     OW41062   5.338   1.292   6.875
12072SOL    HW141063   5.398   1.295   6.955
12072SOL    HW241064   5.263   1.356   6.888
12073SOL     OW41065   4.763   1.098   6.282
12073SOL    HW141066   4.693   1.051   6.336
12073SOL    HW241067   4.822   1.030   6.239
12074SOL     OW41068   4.738   0.236   6.557
12074SOL    HW141069   4.730   0.200   6.464
12074SOL    HW241070   4.736   0.160   6.622
12075SOL     OW41071   4.314   1.487   6.077
12075SOL    HW141072   4.356   1.429   6.007
12075SOL    HW241073   4.270   1.566   6.033
12076SOL     OW41074   3.979   1.348   5.876
12076SOL    HW141075   3.883   1.349   5.849
12076SOL    HW241076   3.991   1.401   5.960
12077SOL     OW41077   3.829   1.013   7.312
12077SOL    HW141078   3.752   0.980   7.366
12077SOL    HW241079   3.914   0.983   7.354
12078SOL     OW41080   4.396   0.203   7.075
12078SOL    HW141081   4.486   0.187   7.035
12078SOL    HW241082   4.404   0.208   7.174
12079SOL     OW41083   3.799   0.345   5.619
12079SOL    HW141084   3.707   0.317   5.590
12079SOL    HW241085   3.830   0.422   5.563
12080SOL     OW41086   5.164   0.856   6.984
12080SOL    HW141087   5.107   0.908   6.921
12080SOL    HW241088   5.260   0.868   6.960
12081SOL     OW41089   3.796   0.166   5.904
12081SOL    HW141090   3.779   0.249   5.850
12081SOL    HW241091   3.886   0.129   5.882
12082SOL     OW41092   5.217   1.767   6.545
12082SOL    HW141093   5.250   1.831   6.476
12082SOL    HW241094   5.283   1.761   6.620
12083SOL     OW41095   4.440   0.565   7.294
12083SOL    HW141096   4.459   0.630   7.368
12083SOL    HW241097   4.500   0.485   7.303
12084SOL     OW41098   4.114   1.741   7.146
12084SOL    HW141099   4.023   1.782   7.144
12084SOL    HW241100   4.107   1.647   7.178
12085SOL     OW41101   5.398   0.883   6.840
12085SOL    HW141102   5.371   0.794   6.803
12085SOL    HW241103   5.399   0.951   6.767
12086SOL     OW41104   4.318   0.745   6.238
12086SOL    HW141105   4.368   0.830   6.219
12086SOL    HW241106   4.230   0.747   6.190
12087SOL     OW41107   5.501   0.342   7.228
12087SOL    HW141108   5.484   0.373   7.134
12087SOL    HW241109   5.417   0.305   7.266
12088SOL     OW41110   5.454   0.934   7.103
12088SOL    HW141111   5.492   1.025   7.118
12088SOL    HW241112   5.446   0.917   7.004
12089SOL     OW41113   4.583   1.374   5.602
12089SOL    HW141114   4.537   1.389   5.690
12089SOL    HW241115   4.627   1.459   5.572
12090SOL     OW41116   4.385   1.790   6.539
12090SOL    HW141117   4.339   1.878   6.526
12090SOL    HW241118   4.484   1.802   6.532
12091SOL     OW41119   4.583   0.956   6.447
12091SOL    HW141120   4.637   0.887   6.495
12091SOL    HW241121   4.551   1.025   6.513
12092SOL     OW41122   4.807   0.984   5.673
12092SOL    HW141123   4.784   1.037   5.591
12092SOL    HW241124   4.888   0.928   5.654
12093SOL     OW41125   3.945   1.314   7.430
12093SOL    HW141126   3.880   1.241   7.409
12093SOL    HW241127   3.949   1.328   7.528
12094SOL     OW41128   3.803   1.240   6.239
12094SOL    HW141129   3.802   1.193   6.327
12094SOL    HW241130   3.885   1.212   6.188
12095SOL     OW41131   4.396   1.391   7.210
12095SOL    HW141132   4.318   1.341   7.248
12095SOL    HW241133   4.393   1.486   7.241
12096SOL     OW41134   4.152   0.424   6.106
12096SOL    HW141135   4.182   0.352   6.044
12096SOL    HW241136   4.113   0.384   6.189
12097SOL     OW41137   5.429   1.487   6.690
12097SOL    HW141138   5.336   1.462   6.663
12097SOL    HW241139   5.455   1.437   6.772
12098SOL     OW41140   4.041   0.547   6.866
12098SOL    HW141141   4.079   0.488   6.938
12098SOL    HW241142   4.081   0.521   6.778
12099SOL     OW41143   4.536   1.586   6.273
12099SOL    HW141144   4.568   1.596   6.179
12099SOL    HW241145   4.457   1.524   6.275
12100SOL     OW41146   5.148   0.214   6.698
12100SOL    HW141147   5.200   0.149   6.753
12100SOL    HW241148   5.099   0.277   6.759
12101SOL     OW41149   4.725   0.034   6.740
12101SOL    HW141150   4.662  -0.038   6.709
12101SOL    HW241151   4.818  -0.002   6.740
12102SOL     OW41152   4.494   1.330   5.887
12102SOL    HW141153   4.448   1.243   5.904
12102SOL    HW241154   4.585   1.327   5.928
12103SOL     OW41155   5.076   0.052   5.754
12103SOL    HW141156   5.111   0.011   5.670
12103SOL    HW241157   4.986   0.014   5.774
12104SOL     OW41158   5.024   0.453   6.277
12104SOL    HW141159   4.965   0.533   6.281
12104SOL    HW241160   5.039   0.418   6.370
12105SOL     OW41161   5.317   0.221   6.468
12105SOL    HW141162   5.233   0.220   6.522
12105SOL    HW241163   5.319   0.304   6.412
12106SOL     OW41164   3.763   1.077   5.886
12106SOL    HW141165   3.862   1.066   5.877
12106SOL    HW241166   3.723   0.991   5.918
12107SOL     OW41167   3.954   0.628   7.561
12107SOL    HW141168   3.861   0.626   7.598
12107SOL    HW241169   3.955   0.589   7.469
12108SOL     OW41170   3.949   0.275   8.444
12108SOL    HW141171   3.984   0.258   8.536
12108SOL    HW241172   3.861   0.230   8.432
12109SOL     OW41173   3.743   0.368   8.095
12109SOL    HW141174   3.661   0.411   8.134
12109SOL    HW241175   3.715   0.295   8.032
12110SOL     OW41176   4.293   1.275   8.613
12110SOL    HW141177   4.200   1.268   8.576
12110SOL    HW241178   4.304   1.364   8.657
12111SOL     OW41179   5.279   1.511   8.151
12111SOL    HW141180   5.222   1.495   8.232
12111SOL    HW241181   5.220   1.521   8.071
12112SOL     OW41182   4.859   0.703   8.165
12112SOL    HW141183   4.916   0.781   8.140
12112SOL    HW241184   4.799   0.729   8.241
12113SOL     OW41185   5.479   0.607   7.679
12113SOL    HW141186   5.467   0.594   7.580
12113SOL    HW241187   5.449   0.526   7.728
12114SOL     OW41188   4.492   1.144   8.471
12114SOL    HW141189   4.414   1.161   8.531
12114SOL    HW241190   4.526   1.231   8.435
12115SOL     OW41191   4.574   0.798   9.271
12115SOL    HW141192   4.570   0.874   9.336
12115SOL    HW241193   4.596   0.834   9.180
12116SOL     OW41194   4.409   1.012   8.113
12116SOL    HW141195   4.478   0.996   8.183
12116SOL    HW241196   4.336   1.069   8.151
12117SOL     OW41197   4.410   1.161   9.251
12117SOL    HW141198   4.470   1.240   9.265
12117SOL    HW241199   4.324   1.192   9.210
12118SOL     OW41200   4.059   1.435   8.509
12118SOL    HW141201   3.981   1.404   8.456
12118SOL    HW241202   4.117   1.493   8.452
12119SOL     OW41203   5.184   1.505   8.787
12119SOL    HW141204   5.208   1.599   8.813
12119SOL    HW241205   5.168   1.451   8.869
12120SOL     OW41206   4.162   0.392   8.947
12120SOL    HW141207   4.244   0.336   8.956
12120SOL    HW241208   4.081   0.334   8.951
12121SOL     OW41209   5.327   0.447   8.185
12121SOL    HW141210   5.253   0.493   8.135
12121SOL    HW241211   5.378   0.515   8.238
12122SOL     OW41212   3.955   1.713   7.931
12122SOL    HW141213   3.989   1.790   7.985
12122SOL    HW241214   3.999   1.713   7.841
12123SOL     OW41215   4.851   1.341   9.138
12123SOL    HW141216   4.898   1.341   9.226
12123SOL    HW241217   4.803   1.254   9.127
12124SOL     OW41218   3.954   1.434   7.986
12124SOL    HW141219   3.928   1.530   7.986
12124SOL    HW241220   3.883   1.380   8.031
12125SOL     OW41221   3.964   1.091   8.334
12125SOL    HW141222   3.978   1.007   8.386
12125SOL    HW241223   3.909   1.155   8.389
12126SOL     OW41224   4.330   0.964   7.571
12126SOL    HW141225   4.337   1.048   7.517
12126SOL    HW241226   4.376   0.977   7.659
12127SOL     OW41227   5.318   0.114   8.928
12127SOL    HW141228   5.300   0.181   8.856
12127SOL    HW241229   5.315   0.160   9.017
12128SOL     OW41230   3.846   0.643   8.011
12128SOL    HW141231   3.801   0.555   8.028
12128SOL    HW241232   3.845   0.697   8.095
12129SOL     OW41233   5.566   1.767   7.807
12129SOL    HW141234   5.620   1.738   7.887
12129SOL    HW241235   5.596   1.857   7.778
12130SOL     OW41236   3.751   1.596   7.565
12130SOL    HW141237   3.732   1.500   7.586
12130SOL    HW241238   3.718   1.654   7.640
12131SOL     OW41239   5.413   0.922   8.060
12131SOL    HW141240   5.508   0.893   8.068
12131SOL    HW241241   5.405   0.987   7.985
12132SOL     OW41242   5.365   1.108   7.880
12132SOL    HW141243   5.451   1.110   7.828
12132SOL    HW241244   5.379   1.155   7.968
12133SOL     OW41245   3.837   0.737   9.045
12133SOL    HW141246   3.925   0.724   9.090
12133SOL    HW241247   3.824   0.834   9.023
12134SOL     OW41248   4.337   1.365   8.174
12134SOL    HW141249   4.288   1.278   8.183
12134SOL    HW241250   4.314   1.408   8.087
12135SOL     OW41251   5.017   1.228   8.871
12135SOL    HW141252   5.054   1.155   8.813
12135SOL    HW241253   5.069   1.233   8.956
12136SOL     OW41254   3.921   0.976   8.712
12136SOL    HW141255   4.010   0.931   8.698
12136SOL    HW241256   3.848   0.911   8.693
12137SOL     OW41257   4.911   1.792   9.064
12137SOL    HW141258   4.935   1.852   8.988
12137SOL    HW241259   4.918   1.697   9.034
12138SOL     OW41260   4.041   0.251   9.249
12138SOL    HW141261   4.112   0.322   9.255
12138SOL    HW241262   3.953   0.290   9.277
12139SOL     OW41263   5.391   1.714   8.020
12139SOL    HW141264   5.350   1.691   7.932
12139SOL    HW241265   5.373   1.640   8.085
12140SOL     OW41266   4.322   0.729   7.718
12140SOL    HW141267   4.346   0.798   7.650
12140SOL    HW241268   4.244   0.762   7.772
12141SOL     OW41269   5.005   0.345   8.392
12141SOL    HW141270   4.919   0.295   8.379
12141SOL    HW241271   5.067   0.291   8.448
12142SOL     OW41272   5.300   1.662   7.755
12142SOL    HW141273   5.389   1.708   7.758
12142SOL    HW241274   5.279   1.638   7.660
12143SOL     OW41275   4.531   0.605   8.913
12143SOL    HW141276   4.484   0.602   9.002
12143SOL    HW241277   4.480   0.550   8.847
12144SOL     OW41278   5.118   0.469   9.122
12144SOL    HW141279   5.098   0.512   9.210
12144SOL    HW241280   5.196   0.407   9.131
12145SOL     OW41281   4.697   0.890   9.020
12145SOL    HW141282   4.743   0.806   8.991
12145SOL    HW241283   4.641   0.924   8.945
12146SOL     OW41284   4.715   0.410   8.690
12146SOL    HW141285   4.638   0.444   8.744
12146SOL    HW241286   4.681   0.359   8.611
12147SOL     OW41287   4.765   0.701   7.877
12147SOL    HW141288   4.791   0.697   7.973
12147SOL    HW241289   4.680   0.650   7.863
12148SOL     OW41290   3.800   0.811   8.237
12148SOL    HW141291   3.899   0.799   8.246
12148SOL    HW241292   3.776   0.906   8.258
12149SOL     OW41293   3.854   1.821   9.019
12149SOL    HW141294   3.844   1.806   9.118
12149SOL    HW241295   3.768   1.857   8.983
12150SOL     OW41296   4.589   0.348   7.643
12150SOL    HW141297   4.648   0.411   7.594
12150SOL    HW241298   4.608   0.254   7.614
12151SOL     OW41299   5.443   0.585   9.279
12151SOL    HW141300   5.417   0.674   9.243
12151SOL    HW241301   5.441   0.517   9.206
12152SOL     OW41302   5.086   1.144   7.993
12152SOL    HW141303   5.169   1.115   7.945
12152SOL    HW241304   5.037   1.211   7.937
12153SOL     OW41305   4.274   0.196   8.333
12153SOL    HW141306   4.269   0.191   8.433
12153SOL    HW241307   4.276   0.292   8.304
12154SOL     OW41308   4.732   1.456   7.925
12154SOL    HW141309   4.686   1.528   7.873
12154SOL    HW241310   4.728   1.476   8.023
12155SOL     OW41311   4.075   1.801   8.301
12155SOL    HW141312   4.125   1.715   8.307
12155SOL    HW241313   4.140   1.878   8.298
12156SOL     OW41314   5.519   1.066   8.321
12156SOL    HW141315   5.457   1.051   8.245
12156SOL    HW241316   5.467   1.077   8.406
12157SOL     OW41317   4.951   1.550   8.954
12157SOL    HW141318   4.957   1.473   9.018
12157SOL    HW241319   4.899   1.524   8.874
12158SOL     OW41320   4.045   0.943   7.690
12158SOL    HW141321   4.127   0.982   7.648
12158SOL    HW241322   4.018   0.861   7.641
12159SOL     OW41323   5.182   0.735   8.176
12159SOL    HW141324   5.177   0.670   8.251
12159SOL    HW241325   5.262   0.794   8.189
12160SOL     OW41326   4.185   1.266   9.175
12160SOL    HW141327   4.135   1.267   9.089
12160SOL    HW241328   4.122   1.248   9.251
12161SOL     OW41329   4.835   1.776   7.685
12161SOL    HW141330   4.775   1.714   7.735
12161SOL    HW241331   4.866   1.732   7.600
12162SOL     OW41332   3.926   0.285   8.946
12162SOL    HW141333   3.846   0.345   8.933
12162SOL    HW241334   3.916   0.236   9.032
12163SOL     OW41335   4.188   1.743   7.771
12163SOL    HW141336   4.221   1.782   7.857
12163SOL    HW241337   4.264   1.736   7.706
12164SOL     OW41338   5.124   0.107   7.874
12164SOL    HW141339   5.100   0.070   7.784
12164SOL    HW241340   5.223   0.123   7.878
12165SOL     OW41341   3.973   1.785   8.689
12165SOL    HW141342   4.030   1.720   8.739
12165SOL    HW241343   3.957   1.752   8.596
12166SOL     OW41344   4.664   1.698   8.352
12166SOL    HW141345   4.744   1.641   8.373
12166SOL    HW241346   4.615   1.658   8.275
12167SOL     OW41347   4.106   0.700   7.928
12167SOL    HW141348   4.151   0.610   7.925
12167SOL    HW241349   4.012   0.689   7.961
12168SOL     OW41350   5.271   0.222   9.177
12168SOL    HW141351   5.266   0.259   9.269
12168SOL    HW241352   5.199   0.153   9.165
12169SOL     OW41353   4.338   0.122   7.565
12169SOL    HW141354   4.436   0.100   7.572
12169SOL    HW241355   4.307   0.105   7.472
12170SOL     OW41356   4.505   0.264   9.197
12170SOL    HW141357   4.572   0.203   9.240
12170SOL    HW241358   4.432   0.283   9.262
12171SOL     OW41359   5.075   0.590   8.881
12171SOL    HW141360   5.103   0.547   8.966
12171SOL    HW241361   5.100   0.686   8.882
12172SOL     OW41362   4.527   1.402   8.372
12172SOL    HW141363   4.617   1.416   8.330
12172SOL    HW241364   4.456   1.404   8.301
12173SOL     OW41365   4.646   0.503   8.347
12173SOL    HW141366   4.621   0.494   8.251
12173SOL    HW241367   4.694   0.421   8.378
12174SOL     OW41368   4.263   0.064   7.960
12174SOL    HW141369   4.182   0.065   8.018
12174SOL    HW241370   4.266   0.147   7.905
12175SOL     OW41371   4.021   0.035   7.619
12175SOL    HW141372   4.070   0.119   7.598
12175SOL    HW241373   4.083  -0.030   7.664
12176SOL     OW41374   4.800   0.683   8.912
12176SOL    HW141375   4.720   0.622   8.915
12176SOL    HW241376   4.881   0.630   8.888
12177SOL     OW41377   4.183   1.152   8.189
12177SOL    HW141378   4.112   1.125   8.254
12177SOL    HW241379   4.157   1.124   8.096
12178SOL     OW41380   4.995   1.797   8.039
12178SOL    HW141381   5.039   1.861   7.975
12178SOL    HW241382   4.945   1.849   8.109
12179SOL     OW41383   4.756   0.549   7.464
12179SOL    HW141384   4.715   0.631   7.425
12179SOL    HW241385   4.820   0.575   7.537
12180SOL     OW41386   3.802   0.556   8.834
12180SOL    HW141387   3.894   0.555   8.793
12180SOL    HW241388   3.796   0.630   8.901
12181SOL     OW41389   4.285   0.222   8.595
12181SOL    HW141390   4.323   0.138   8.632
12181SOL    HW241391   4.197   0.241   8.639
12182SOL     OW41392   5.153   1.173   8.315
12182SOL    HW141393   5.098   1.089   8.308
12182SOL    HW241394   5.179   1.202   8.223
12183SOL     OW41395   5.190   0.590   8.440
12183SOL    HW141396   5.160   0.495   8.447
12183SOL    HW241397   5.263   0.606   8.506
12184SOL     OW41398   5.581   0.833   7.825
12184SOL    HW141399   5.623   0.769   7.889
12184SOL    HW241400   5.543   0.782   7.747
12185SOL     OW41401   4.212   1.385   7.622
12185SOL    HW141402   4.125   1.370   7.669
12185SOL    HW241403   4.195   1.411   7.527
12186SOL     OW41404   5.388   1.280   8.105
12186SOL    HW141405   5.487   1.288   8.119
12186SOL    HW241406   5.343   1.364   8.136
12187SOL     OW41407   5.114   0.575   7.526
12187SOL    HW141408   5.060   0.554   7.607
12187SOL    HW241409   5.205   0.534   7.535
12188SOL     OW41410   4.251   0.256   7.776
12188SOL    HW141411   4.278   0.197   7.701
12188SOL    HW241412   4.251   0.351   7.745
12189SOL     OW41413   4.788   1.347   8.788
12189SOL    HW141414   4.708   1.324   8.843
12189SOL    HW241415   4.871   1.321   8.837
12190SOL     OW41416   5.316   1.629   9.073
12190SOL    HW141417   5.343   1.663   8.983
12190SOL    HW241418   5.395   1.591   9.119
12191SOL     OW41419   5.362   1.099   8.527
12191SOL    HW141420   5.367   1.180   8.586
12191SOL    HW241421   5.276   1.101   8.476
12192SOL     OW41422   4.639   0.089   8.850
12192SOL    HW141423   4.664   0.069   8.755
12192SOL    HW241424   4.711   0.145   8.892
12193SOL     OW41425   4.704   1.116   9.167
12193SOL    HW141426   4.605   1.122   9.177
12193SOL    HW241427   4.727   1.036   9.111
12194SOL     OW41428   4.429   1.050   7.816
12194SOL    HW141429   4.415   1.057   7.915
12194SOL    HW241430   4.513   0.999   7.798
12195SOL     OW41431   4.134   0.813   8.699
12195SOL    HW141432   4.220   0.825   8.749
12195SOL    HW241433   4.092   0.726   8.726
12196SOL     OW41434   4.998   0.386   8.710
12196SOL    HW141435   5.019   0.460   8.774
12196SOL    HW241436   4.909   0.403   8.667
12197SOL     OW41437   3.788   1.564   8.779
12197SOL    HW141438   3.742   1.646   8.745
12197SOL    HW241439   3.886   1.583   8.788
12198SOL     OW41440   4.091   1.100   7.949
12198SOL    HW141441   4.084   1.183   7.893
12198SOL    HW241442   4.095   1.020   7.889
12199SOL     OW41443   4.290   0.537   8.313
12199SOL    HW141444   4.302   0.603   8.239
12199SOL    HW241445   4.336   0.571   8.396
12200SOL     OW41446   4.976   1.348   7.836
12200SOL    HW141447   5.026   1.425   7.876
12200SOL    HW241448   4.881   1.350   7.868
12201SOL     OW41449   5.306   0.639   7.920
12201SOL    HW141450   5.275   0.700   7.993
12201SOL    HW241451   5.356   0.691   7.851
12202SOL     OW41452   4.126   0.751   9.046
12202SOL    HW141453   4.194   0.806   8.999
12202SOL    HW241454   4.166   0.663   9.073
12203SOL     OW41455   5.311   0.779   9.118
12203SOL    HW141456   5.219   0.817   9.113
12203SOL    HW241457   5.371   0.826   9.053
12204SOL     OW41458   4.737   0.105   9.218
12204SOL    HW141459   4.743   0.190   9.166
12204SOL    HW241460   4.769   0.029   9.161
12205SOL     OW41461   4.228   0.050   9.188
12205SOL    HW141462   4.186  -0.007   9.118
12205SOL    HW241463   4.162   0.119   9.220
12206SOL     OW41464   4.297   0.870   8.477
12206SOL    HW141465   4.341   0.959   8.468
12206SOL    HW241466   4.234   0.870   8.554
12207SOL     OW41467   5.084   0.862   8.493
12207SOL    HW141468   5.009   0.862   8.427
12207SOL    HW241469   5.121   0.770   8.502
12208SOL     OW41470   4.933   0.525   7.723
12208SOL    HW141471   4.946   0.441   7.777
12208SOL    HW241472   4.904   0.599   7.783
12209SOL     OW41473   4.031   0.213   8.679
12209SOL    HW141474   4.008   0.250   8.769
12209SOL    HW241475   4.001   0.118   8.673
12210SOL     OW41476   3.761   1.310   8.730
12210SOL    HW141477   3.814   1.261   8.798
12210SOL    HW241478   3.783   1.408   8.735
12211SOL     OW41479   4.456   0.634   8.512
12211SOL    HW141480   4.515   0.608   8.436
12211SOL    HW241481   4.428   0.730   8.501
12212SOL     OW41482   5.452   0.935   9.302
12212SOL    HW141483   5.406   0.928   9.213
12212SOL    HW241484   5.390   0.979   9.368
12213SOL     OW41485   4.031   0.063   8.066
12213SOL    HW141486   4.020   0.157   8.099
12213SOL    HW241487   4.026   0.000   8.143
12214SOL     OW41488   5.346   0.367   7.822
12214SOL    HW141489   5.348   0.291   7.886
12214SOL    HW241490   5.298   0.444   7.862
12215SOL     OW41491   4.747   0.766   8.414
12215SOL    HW141492   4.762   0.787   8.510
12215SOL    HW241493   4.717   0.671   8.405
12216SOL     OW41494   4.704   1.573   9.148
12216SOL    HW141495   4.684   1.617   9.060
12216SOL    HW241496   4.743   1.482   9.132
12217SOL     OW41497   5.583   1.518   9.053
12217SOL    HW141498   5.597   1.545   8.958
12217SOL    HW241499   5.666   1.540   9.106
12218SOL     OW41500   4.074   0.898   9.252
12218SOL    HW141501   4.150   0.942   9.300
12218SOL    HW241502   4.109   0.851   9.170
12219SOL     OW41503   5.264   0.274   7.573
12219SOL    HW141504   5.203   0.199   7.596
12219SOL    HW241505   5.286   0.326   7.656
12220SOL     OW41506   5.027   0.838   7.490
12220SOL    HW141507   5.061   0.745   7.505
12220SOL    HW241508   5.045   0.865   7.395
12221SOL     OW41509   4.043   0.810   8.397
12221SOL    HW141510   4.136   0.846   8.402
12221SOL    HW241511   4.037   0.725   8.449
12222SOL     OW41512   4.063   0.509   8.454
12222SOL    HW141513   4.011   0.426   8.437
12222SOL    HW241514   4.140   0.514   8.390
12223SOL     OW41515   4.862   0.380   9.126
12223SOL    HW141516   4.817   0.443   9.190
12223SOL    HW241517   4.955   0.411   9.109
12224SOL     OW41518   4.884   0.207   8.925
12224SOL    HW141519   4.884   0.271   9.002
12224SOL    HW241520   4.912   0.255   8.842
12225SOL     OW41521   3.732   1.326   7.648
12225SOL    HW141522   3.639   1.347   7.617
12225SOL    HW241523   3.742   1.227   7.661
12226SOL     OW41524   3.812   1.801   8.375
12226SOL    HW141525   3.770   1.715   8.348
12226SOL    HW241526   3.906   1.804   8.341
12227SOL     OW41527   4.228   1.568   8.358
12227SOL    HW141528   4.294   1.642   8.367
12227SOL    HW241529   4.272   1.489   8.316
12228SOL     OW41530   4.726   0.796   8.686
12228SOL    HW141531   4.767   0.764   8.772
12228SOL    HW241532   4.630   0.769   8.683
12229SOL     OW41533   3.764   0.544   8.562
12229SOL    HW141534   3.849   0.511   8.521
12229SOL    HW241535   3.777   0.559   8.660
12230SOL     OW41536   5.093   0.950   9.108
12230SOL    HW141537   5.132   1.039   9.128
12230SOL    HW241538   5.103   0.930   9.011
12231SOL     OW41539   4.539   0.572   7.773
12231SOL    HW141540   4.546   0.483   7.727
12231SOL    HW241541   4.445   0.606   7.765
12232SOL     OW41542   5.381   0.604   8.654
12232SOL    HW141543   5.343   0.535   8.716
12232SOL    HW241544   5.463   0.568   8.610
12233SOL     OW41545   3.976   1.564   9.192
12233SOL    HW141546   3.946   1.621   9.268
12233SOL    HW241547   3.969   1.467   9.218
12234SOL     OW41548   4.395   0.464   8.717
12234SOL    HW141549   4.361   0.375   8.687
12234SOL    HW241550   4.421   0.518   8.637
12235SOL     OW41551   4.197   0.500   7.639
12235SOL    HW141552   4.258   0.580   7.643
12235SOL    HW241553   4.102   0.531   7.646
12236SOL     OW41554   3.883   1.137   8.914
12236SOL    HW141555   3.905   1.076   8.990
12236SOL    HW241556   3.893   1.088   8.828
12237SOL     OW41557   5.071   1.059   8.682
12237SOL    HW141558   5.095   0.996   8.608
12237SOL    HW241559   4.981   1.099   8.664
12238SOL     OW41560   5.026   0.855   7.757
12238SOL    HW141561   4.940   0.824   7.799
12238SOL    HW241562   5.022   0.841   7.658
12239SOL     OW41563   5.483   1.747   8.602
12239SOL    HW141564   5.544   1.777   8.529
12239SOL    HW241565   5.445   1.658   8.580
12240SOL     OW41566   4.976   1.731   8.576
12240SOL    HW141567   5.060   1.736   8.522
12240SOL    HW241568   4.953   1.635   8.594
12241SOL     OW41569   3.807   1.258   8.470
12241SOL    HW141570   3.802   1.257   8.570
12241SOL    HW241571   3.724   1.217   8.432
12242SOL     OW41572   5.450   0.135   7.971
12242SOL    HW141573   5.523   0.118   7.904
12242SOL    HW241574   5.419   0.048   8.009
12243SOL     OW41575   5.112   1.573   7.925
12243SOL    HW141576   5.179   1.585   7.851
12243SOL    HW241577   5.072   1.662   7.948
12244SOL     OW41578   3.854   1.794   9.299
12244SOL    HW141579   3.813   1.720   9.352
12244SOL    HW241580   3.918   1.845   9.357
12245SOL     OW41581   5.004   0.927   8.120
12245SOL    HW141582   5.064   0.846   8.122
12245SOL    HW241583   5.044   0.996   8.060
12246SOL     OW41584   4.554   1.273   8.870
12246SOL    HW141585   4.549   1.306   8.965
12246SOL    HW241586   4.468   1.292   8.824
12247SOL     OW41587   4.396   1.616   7.602
12247SOL    HW141588   4.405   1.626   7.503
12247SOL    HW241589   4.356   1.527   7.623
12248SOL     OW41590   5.374   1.720   8.842
12248SOL    HW141591   5.427   1.730   8.758
12248SOL    HW241592   5.347   1.810   8.876
12249SOL     OW41593   3.987   0.326   8.168
12249SOL    HW141594   3.908   0.377   8.134
12249SOL    HW241595   3.978   0.311   8.266
12250SOL     OW41596   4.918   1.612   7.479
12250SOL    HW141597   4.924   1.519   7.516
12250SOL    HW241598   4.859   1.612   7.399
12251SOL     OW41599   4.546   1.002   8.820
12251SOL    HW141600   4.586   1.001   8.728
12251SOL    HW241601   4.556   1.094   8.860
12252SOL     OW41602   4.640   0.910   7.739
12252SOL    HW141603   4.703   0.948   7.671
12252SOL    HW241604   4.680   0.827   7.778
12253SOL     OW41605   5.228   1.607   7.492
12253SOL    HW141606   5.136   1.644   7.499
12253SOL    HW241607   5.266   1.627   7.402
12254SOL     OW41608   4.096   1.288   8.938
12254SOL    HW141609   4.083   1.381   8.904
12254SOL    HW241610   4.012   1.236   8.925
12255SOL     OW41611   5.338   1.292   8.737
12255SOL    HW141612   5.398   1.295   8.817
12255SOL    HW241613   5.263   1.356   8.750
12256SOL     OW41614   4.738   0.236   8.419
12256SOL    HW141615   4.730   0.200   8.326
12256SOL    HW241616   4.736   0.160   8.484
12257SOL     OW41617   4.314   1.487   7.939
12257SOL    HW141618   4.356   1.429   7.869
12257SOL    HW241619   4.270   1.566   7.895
12258SOL     OW41620   5.433   0.385   8.829
12258SOL    HW141621   5.506   0.454   8.833
12258SOL    HW241622   5.461   0.310   8.770
12259SOL     OW41623   3.979   1.348   7.738
12259SOL    HW141624   3.883   1.349   7.711
12259SOL    HW241625   3.991   1.401   7.822
12260SOL     OW41626   3.829   1.013   9.174
12260SOL    HW141627   3.752   0.980   9.228
12260SOL    HW241628   3.914   0.983   9.216
12261SOL     OW41629   4.396   0.203   8.937
12261SOL    HW141630   4.486   0.187   8.897
12261SOL    HW241631   4.404   0.208   9.036
12262SOL     OW41632   3.799   0.345   7.481
12262SOL    HW141633   3.707   0.317   7.452
12262SOL    HW241634   3.830   0.422   7.425
12263SOL     OW41635   5.164   0.856   8.846
12263SOL    HW141636   5.107   0.908   8.783
12263SOL    HW241637   5.260   0.868   8.822
12264SOL     OW41638   3.796   0.166   7.766
12264SOL    HW141639   3.779   0.249   7.712
12264SOL    HW241640   3.886   0.129   7.744
12265SOL     OW41641   4.907   1.335   7.567
12265SOL    HW141642   4.808   1.324   7.569
12265SOL    HW241643   4.941   1.350   7.660
12266SOL     OW41644   4.337   0.842   8.879
12266SOL    HW141645   4.393   0.923   8.862
12266SOL    HW241646   4.396   0.762   8.882
12267SOL     OW41647   5.217   1.767   8.407
12267SOL    HW141648   5.250   1.831   8.338
12267SOL    HW241649   5.283   1.761   8.482
12268SOL     OW41650   4.440   0.565   9.156
12268SOL    HW141651   4.459   0.630   9.230
12268SOL    HW241652   4.500   0.485   9.165
12269SOL     OW41653   5.398   0.883   8.702
12269SOL    HW141654   5.371   0.794   8.665
12269SOL    HW241655   5.399   0.951   8.629
12270SOL     OW41656   4.949   0.325   7.897
12270SOL    HW141657   5.014   0.251   7.886
12270SOL    HW241658   4.969   0.375   7.981
12271SOL     OW41659   4.318   0.745   8.100
12271SOL    HW141660   4.368   0.830   8.081
12271SOL    HW241661   4.230   0.747   8.052
12272SOL     OW41662   5.501   0.342   9.090
12272SOL    HW141663   5.484   0.373   8.996
12272SOL    HW241664   5.417   0.305   9.128
12273SOL     OW41665   5.454   0.934   8.965
12273SOL    HW141666   5.492   1.025   8.980
12273SOL    HW241667   5.446   0.917   8.866
12274SOL     OW41668   4.583   1.374   7.464
12274SOL    HW141669   4.537   1.389   7.552
12274SOL    HW241670   4.627   1.459   7.434
12275SOL     OW41671   4.385   1.790   8.401
12275SOL    HW141672   4.339   1.878   8.388
12275SOL    HW241673   4.484   1.802   8.394
12276SOL     OW41674   4.583   0.956   8.309
12276SOL    HW141675   4.637   0.887   8.357
12276SOL    HW241676   4.551   1.025   8.375
12277SOL     OW41677   4.807   0.984   7.535
12277SOL    HW141678   4.784   1.037   7.453
12277SOL    HW241679   4.888   0.928   7.516
12278SOL     OW41680   5.585   1.569   8.299
12278SOL    HW141681   5.514   1.557   8.229
12278SOL    HW241682   5.586   1.490   8.359
12279SOL     OW41683   3.945   1.314   9.292
12279SOL    HW141684   3.880   1.241   9.271
12279SOL    HW241685   3.949   1.328   9.390
12280SOL     OW41686   3.803   1.240   8.101
12280SOL    HW141687   3.802   1.193   8.189
12280SOL    HW241688   3.885   1.212   8.050
12281SOL     OW41689   5.548   0.192   8.675
12281SOL    HW141690   5.544   0.102   8.719
12281SOL    HW241691   5.551   0.181   8.576
12282SOL     OW41692   4.152   0.424   7.968
12282SOL    HW141693   4.182   0.352   7.906
12282SOL    HW241694   4.113   0.384   8.051
12283SOL     OW41695   5.429   1.487   8.552
12283SOL    HW141696   5.336   1.462   8.525
12283SOL    HW241697   5.455   1.437   8.634
12284SOL     OW41698   4.041   0.547   8.728
12284SOL    HW141699   4.079   0.488   8.800
12284SOL    HW241700   4.081   0.521   8.640
12285SOL     OW41701   4.536   1.586   8.135
12285SOL    HW141702   4.568   1.596   8.041
12285SOL    HW241703   4.457   1.524   8.137
12286SOL     OW41704   4.725   0.034   8.602
12286SOL    HW141705   4.662  -0.038   8.571
12286SOL    HW241706   4.818  -0.002   8.602
12287SOL     OW41707   4.494   1.330   7.749
12287SOL    HW141708   4.448   1.243   7.766
12287SOL    HW241709   4.585   1.327   7.790
12288SOL     OW41710   5.076   0.052   7.616
12288SOL    HW141711   5.111   0.011   7.532
12288SOL    HW241712   4.986   0.014   7.636
12289SOL     OW41713   5.024   0.453   8.139
12289SOL    HW141714   4.965   0.533   8.143
12289SOL    HW241715   5.039   0.418   8.232
12290SOL     OW41716   3.763   1.077   7.748
12290SOL    HW141717   3.862   1.066   7.739
12290SOL    HW241718   3.723   0.991   7.780
12291SOL     OW41719   4.599   1.646   7.785
12291SOL    HW141720   4.522   1.611   7.731
12291SOL    HW241721   4.567   1.717   7.847
12292SOL     OW41722   3.954   0.628   9.423
12292SOL    HW141723   3.861   0.626   9.460
12292SOL    HW241724   3.955   0.589   9.331
12293SOL     OW41725   5.479   0.607   9.541
12293SOL    HW141726   5.467   0.594   9.442
12293SOL    HW241727   5.449   0.526   9.590
12294SOL     OW41728   3.955   1.713   9.793
12294SOL    HW141729   3.989   1.790   9.847
12294SOL    HW241730   3.999   1.713   9.703
12295SOL     OW41731   3.954   1.434   9.848
12295SOL    HW141732   3.928   1.530   9.848
12295SOL    HW241733   3.883   1.380   9.893
12296SOL     OW41734   4.330   0.964   9.433
12296SOL    HW141735   4.337   1.048   9.379
12296SOL    HW241736   4.376   0.977   9.521
12297SOL     OW41737   3.846   0.643   9.873
12297SOL    HW141738   3.801   0.555   9.890
12297SOL    HW241739   3.845   0.697   9.957
12298SOL     OW41740   5.566   1.767   9.669
12298SOL    HW141741   5.620   1.738   9.749
12298SOL    HW241742   5.596   1.857   9.640
12299SOL     OW41743   3.751   1.596   9.427
12299SOL    HW141744   3.732   1.500   9.448
12299SOL    HW241745   3.718   1.654   9.502
12300SOL     OW41746   5.413   0.922   9.922
12300SOL    HW141747   5.508   0.893   9.930
12300SOL    HW241748   5.405   0.987   9.847
12301SOL     OW41749   5.365   1.108   9.742
12301SOL    HW141750   5.451   1.110   9.690
12301SOL    HW241751   5.379   1.155   9.830
12302SOL     OW41752   4.337   1.365  10.036
12302SOL    HW141753   4.288   1.278  10.045
12302SOL    HW241754   4.314   1.408   9.949
12303SOL     OW41755   4.533   0.004   9.812
12303SOL    HW141756   4.573   0.095   9.803
12303SOL    HW241757   4.433   0.012   9.818
12304SOL     OW41758   5.249   0.999   9.500
12304SOL    HW141759   5.186   0.923   9.513
12304SOL    HW241760   5.297   1.017   9.586
12305SOL     OW41761   4.322   0.729   9.580
12305SOL    HW141762   4.346   0.798   9.512
12305SOL    HW241763   4.244   0.762   9.634
12306SOL     OW41764   5.300   1.662   9.617
12306SOL    HW141765   5.389   1.708   9.620
12306SOL    HW241766   5.279   1.638   9.522
12307SOL     OW41767   4.765   0.701   9.739
12307SOL    HW141768   4.791   0.697   9.835
12307SOL    HW241769   4.680   0.650   9.725
12308SOL     OW41770   3.800   0.811  10.099
12308SOL    HW141771   3.899   0.799  10.108
12308SOL    HW241772   3.776   0.906  10.120
12309SOL     OW41773   4.589   0.348   9.505
12309SOL    HW141774   4.648   0.411   9.456
12309SOL    HW241775   4.608   0.254   9.476
12310SOL     OW41776   5.086   1.144   9.855
12310SOL    HW141777   5.169   1.115   9.807
12310SOL    HW241778   5.037   1.211   9.799
12311SOL     OW41779   4.732   1.456   9.787
12311SOL    HW141780   4.686   1.528   9.735
12311SOL    HW241781   4.728   1.476   9.885
12312SOL     OW41782   4.075   1.801  10.163
12312SOL    HW141783   4.125   1.715  10.169
12312SOL    HW241784   4.140   1.878  10.160
12313SOL     OW41785   4.835   1.776   9.547
12313SOL    HW141786   4.775   1.714   9.597
12313SOL    HW241787   4.866   1.732   9.462
12314SOL     OW41788   4.188   1.743   9.633
12314SOL    HW141789   4.221   1.782   9.719
12314SOL    HW241790   4.264   1.736   9.568
12315SOL     OW41791   5.124   0.107   9.736
12315SOL    HW141792   5.100   0.070   9.646
12315SOL    HW241793   5.223   0.123   9.740
12316SOL     OW41794   4.338   0.122   9.427
12316SOL    HW141795   4.436   0.100   9.434
12316SOL    HW241796   4.307   0.105   9.334
12317SOL     OW41797   4.263   0.064   9.822
12317SOL    HW141798   4.182   0.065   9.880
12317SOL    HW241799   4.266   0.147   9.767
12318SOL     OW41800   5.158   1.188   9.351
12318SOL    HW141801   5.190   1.112   9.408
12318SOL    HW241802   5.066   1.215   9.381
12319SOL     OW41803   4.021   0.035   9.481
12319SOL    HW141804   4.070   0.119   9.460
12319SOL    HW241805   4.083  -0.030   9.526
12320SOL     OW41806   4.659   0.236   9.790
12320SOL    HW141807   4.611   0.277   9.712
12320SOL    HW241808   4.758   0.234   9.771
12321SOL     OW41809   4.183   1.152  10.051
12321SOL    HW141810   4.112   1.125  10.116
12321SOL    HW241811   4.157   1.124   9.958
12322SOL     OW41812   4.995   1.797   9.901
12322SOL    HW141813   5.039   1.861   9.837
12322SOL    HW241814   4.945   1.849   9.971
12323SOL     OW41815   4.756   0.549   9.326
12323SOL    HW141816   4.715   0.631   9.287
12323SOL    HW241817   4.820   0.575   9.399
12324SOL     OW41818   4.590   0.454   9.952
12324SOL    HW141819   4.558   0.526   9.890
12324SOL    HW241820   4.614   0.373   9.899
12325SOL     OW41821   5.581   0.833   9.687
12325SOL    HW141822   5.623   0.769   9.751
12325SOL    HW241823   5.543   0.782   9.609
12326SOL     OW41824   4.212   1.385   9.484
12326SOL    HW141825   4.125   1.370   9.531
12326SOL    HW241826   4.195   1.411   9.389
12327SOL     OW41827   4.251   0.256   9.638
12327SOL    HW141828   4.278   0.197   9.563
12327SOL    HW241829   4.251   0.351   9.607
12328SOL     OW41830   4.031   0.063   9.928
12328SOL    HW141831   4.020   0.157   9.961
12328SOL    HW241832   4.026   0.000  10.005
12329SOL     OW41833   5.346   0.367   9.684
12329SOL    HW141834   5.348   0.291   9.748
12329SOL    HW241835   5.298   0.444   9.724
12330SOL     OW41836   5.264   0.274   9.435
12330SOL    HW141837   5.203   0.199   9.458
12330SOL    HW241838   5.286   0.326   9.518
12331SOL     OW41839   5.027   0.838   9.352
12331SOL    HW141840   5.061   0.745   9.367
12331SOL    HW241841   5.045   0.865   9.257
12332SOL     OW41842   3.732   1.326   9.510
12332SOL    HW141843   3.639   1.347   9.479
12332SOL    HW241844   3.742   1.227   9.523
12333SOL     OW41845   4.539   0.572   9.635
12333SOL    HW141846   4.546   0.483   9.589
12333SOL    HW241847   4.445   0.606   9.627
12334SOL     OW41848   4.197   0.500   9.501
12334SOL    HW141849   4.258   0.580   9.505
12334SOL    HW241850   4.102   0.531   9.508
12335SOL     OW41851   5.450   0.135   9.833
12335SOL    HW141852   5.523   0.118   9.766
12335SOL    HW241853   5.419   0.048   9.871
12336SOL     OW41854   5.112   1.573   9.787
12336SOL    HW141855   5.179   1.585   9.713
12336SOL    HW241856   5.072   1.662   9.810
12337SOL     OW41857   4.396   1.616   9.464
12337SOL    HW141858   4.405   1.626   9.365
12337SOL    HW241859   4.356   1.527   9.485
12338SOL     OW41860   5.565   0.175  10.273
12338SOL    HW141861   5.604   0.090  10.237
12338SOL    HW241862   5.467   0.177  10.254
12339SOL     OW41863   4.918   1.612   9.341
12339SOL    HW141864   4.924   1.519   9.378
12339SOL    HW241865   4.859   1.612   9.261
12340SOL     OW41866   4.640   0.910   9.601
12340SOL    HW141867   4.703   0.948   9.533
12340SOL    HW241868   4.680   0.827   9.640
12341SOL     OW41869   5.228   1.607   9.354
12341SOL    HW141870   5.136   1.644   9.361
12341SOL    HW241871   5.266   1.627   9.264
12342SOL     OW41872   3.979   1.348   9.600
12342SOL    HW141873   3.883   1.349   9.573
12342SOL    HW241874   3.991   1.401   9.684
12343SOL     OW41875   3.799   0.345   9.343
12343SOL    HW141876   3.707   0.317   9.314
12343SOL    HW241877   3.830   0.422   9.287
12344SOL     OW41878   3.796   0.166   9.628
12344SOL    HW141879   3.779   0.249   9.574
12344SOL    HW241880   3.886   0.129   9.606
12345SOL     OW41881   4.949   0.325   9.759
12345SOL    HW141882   5.014   0.251   9.748
12345SOL    HW241883   4.969   0.375   9.843
12346SOL     OW41884   4.807   0.984   9.397
12346SOL    HW141885   4.784   1.037   9.315
12346SOL    HW241886   4.888   0.928   9.378
12347SOL     OW41887   3.803   1.240   9.963
12347SOL    HW141888   3.802   1.193  10.051
12347SOL    HW241889   3.885   1.212   9.912
12348SOL     OW41890   4.152   0.424   9.830
12348SOL    HW141891   4.182   0.352   9.768
12348SOL    HW241892   4.113   0.384   9.913
12349SOL     OW41893   5.076   0.052   9.478
12349SOL    HW141894   5.111   0.011   9.394
12349SOL    HW241895   4.986   0.014   9.498
12350SOL     OW41896   3.763   1.077   9.610
12350SOL    HW141897   3.862   1.066   9.601
12350SOL    HW241898   3.723   0.991   9.642
12351SOL     OW41899   4.599   1.646   9.647
12351SOL    HW141900   4.522   1.611   9.593
12351SOL    HW241901   4.567   1.717   9.709
12352SOL     OW41902   3.954   2.490   0.113
12352SOL    HW141903   3.861   2.488   0.150
12352SOL    HW241904   3.955   2.451   0.021
12353SOL     OW41905   3.949   2.137   0.996
12353SOL    HW141906   3.984   2.120   1.088
12353SOL    HW241907   3.861   2.092   0.984
12354SOL     OW41908   3.743   2.230   0.647
12354SOL    HW141909   3.661   2.273   0.686
12354SOL    HW241910   3.715   2.157   0.584
12355SOL     OW41911   4.293   3.137   1.165
12355SOL    HW141912   4.200   3.130   1.128
12355SOL    HW241913   4.304   3.226   1.209
12356SOL     OW41914   5.279   3.373   0.703
12356SOL    HW141915   5.222   3.357   0.784
12356SOL    HW241916   5.220   3.383   0.623
12357SOL     OW41917   4.859   2.565   0.717
12357SOL    HW141918   4.916   2.643   0.692
12357SOL    HW241919   4.799   2.591   0.793
12358SOL     OW41920   5.479   2.469   0.231
12358SOL    HW141921   5.467   2.456   0.132
12358SOL    HW241922   5.449   2.388   0.280
12359SOL     OW41923   4.492   3.006   1.023
12359SOL    HW141924   4.414   3.023   1.083
12359SOL    HW241925   4.526   3.093   0.987
12360SOL     OW41926   4.574   2.660   1.823
12360SOL    HW141927   4.570   2.736   1.888
12360SOL    HW241928   4.596   2.696   1.732
12361SOL     OW41929   4.409   2.874   0.665
12361SOL    HW141930   4.478   2.858   0.735
12361SOL    HW241931   4.336   2.931   0.703
12362SOL     OW41932   4.410   3.023   1.803
12362SOL    HW141933   4.470   3.102   1.817
12362SOL    HW241934   4.324   3.054   1.762
12363SOL     OW41935   4.059   3.297   1.061
12363SOL    HW141936   3.981   3.266   1.008
12363SOL    HW241937   4.117   3.355   1.004
12364SOL     OW41938   5.184   3.367   1.339
12364SOL    HW141939   5.208   3.461   1.365
12364SOL    HW241940   5.168   3.313   1.421
12365SOL     OW41941   4.162   2.254   1.499
12365SOL    HW141942   4.244   2.198   1.508
12365SOL    HW241943   4.081   2.196   1.503
12366SOL     OW41944   5.327   2.309   0.737
12366SOL    HW141945   5.253   2.355   0.687
12366SOL    HW241946   5.378   2.377   0.790
12367SOL     OW41947   3.955   3.575   0.483
12367SOL    HW141948   3.989   3.652   0.537
12367SOL    HW241949   3.999   3.575   0.393
12368SOL     OW41950   4.851   3.203   1.690
12368SOL    HW141951   4.898   3.203   1.778
12368SOL    HW241952   4.803   3.116   1.679
12369SOL     OW41953   3.954   3.296   0.538
12369SOL    HW141954   3.928   3.392   0.538
12369SOL    HW241955   3.883   3.242   0.583
12370SOL     OW41956   3.964   2.953   0.886
12370SOL    HW141957   3.978   2.869   0.938
12370SOL    HW241958   3.909   3.017   0.941
12371SOL     OW41959   4.344   3.648   1.439
12371SOL    HW141960   4.252   3.631   1.474
12371SOL    HW241961   4.372   3.740   1.465
12372SOL     OW41962   4.330   2.826   0.123
12372SOL    HW141963   4.337   2.910   0.069
12372SOL    HW241964   4.376   2.839   0.211
12373SOL     OW41965   5.318   1.976   1.480
12373SOL    HW141966   5.300   2.043   1.408
12373SOL    HW241967   5.315   2.022   1.569
12374SOL     OW41968   3.846   2.505   0.563
12374SOL    HW141969   3.801   2.417   0.580
12374SOL    HW241970   3.845   2.559   0.647
12375SOL     OW41971   3.751   3.458   0.117
12375SOL    HW141972   3.732   3.362   0.138
12375SOL    HW241973   3.718   3.516   0.192
12376SOL     OW41974   5.413   2.784   0.612
12376SOL    HW141975   5.508   2.755   0.620
12376SOL    HW241976   5.405   2.849   0.537
12377SOL     OW41977   5.365   2.970   0.432
12377SOL    HW141978   5.451   2.972   0.380
12377SOL    HW241979   5.379   3.017   0.520
12378SOL     OW41980   3.837   2.599   1.597
12378SOL    HW141981   3.925   2.586   1.642
12378SOL    HW241982   3.824   2.696   1.575
12379SOL     OW41983   4.337   3.227   0.726
12379SOL    HW141984   4.288   3.140   0.735
12379SOL    HW241985   4.314   3.270   0.639
12380SOL     OW41986   5.017   3.090   1.423
12380SOL    HW141987   5.054   3.017   1.365
12380SOL    HW241988   5.069   3.095   1.508
12381SOL     OW41989   3.921   2.838   1.264
12381SOL    HW141990   4.010   2.793   1.250
12381SOL    HW241991   3.848   2.773   1.245
12382SOL     OW41992   5.249   2.861   0.190
12382SOL    HW141993   5.186   2.785   0.203
12382SOL    HW241994   5.297   2.879   0.276
12383SOL     OW41995   4.911   3.654   1.616
12383SOL    HW141996   4.935   3.714   1.540
12383SOL    HW241997   4.918   3.559   1.586
12384SOL     OW41998   4.041   2.113   1.801
12384SOL    HW141999   4.112   2.184   1.807
12384SOL    HW242000   3.953   2.152   1.829
12385SOL     OW42001   5.391   3.576   0.572
12385SOL    HW142002   5.350   3.553   0.484
12385SOL    HW242003   5.373   3.502   0.637
12386SOL     OW42004   4.322   2.591   0.270
12386SOL    HW142005   4.346   2.660   0.202
12386SOL    HW242006   4.244   2.624   0.324
12387SOL     OW42007   5.005   2.207   0.944
12387SOL    HW142008   4.919   2.157   0.931
12387SOL    HW242009   5.067   2.153   1.000
12388SOL     OW42010   5.300   3.524   0.307
12388SOL    HW142011   5.389   3.570   0.310
12388SOL    HW242012   5.279   3.500   0.212
12389SOL     OW42013   4.531   2.467   1.465
12389SOL    HW142014   4.484   2.464   1.554
12389SOL    HW242015   4.480   2.412   1.399
12390SOL     OW42016   5.118   2.331   1.674
12390SOL    HW142017   5.098   2.374   1.762
12390SOL    HW242018   5.196   2.269   1.683
12391SOL     OW42019   4.697   2.752   1.572
12391SOL    HW142020   4.743   2.668   1.543
12391SOL    HW242021   4.641   2.786   1.497
12392SOL     OW42022   4.715   2.272   1.242
12392SOL    HW142023   4.638   2.306   1.296
12392SOL    HW242024   4.681   2.221   1.163
12393SOL     OW42025   4.765   2.563   0.429
12393SOL    HW142026   4.791   2.559   0.525
12393SOL    HW242027   4.680   2.512   0.415
12394SOL     OW42028   3.800   2.673   0.789
12394SOL    HW142029   3.899   2.661   0.798
12394SOL    HW242030   3.776   2.768   0.810
12395SOL     OW42031   3.854   3.683   1.571
12395SOL    HW142032   3.844   3.668   1.670
12395SOL    HW242033   3.768   3.719   1.535
12396SOL     OW42034   4.589   2.210   0.195
12396SOL    HW142035   4.648   2.273   0.146
12396SOL    HW242036   4.608   2.116   0.166
12397SOL     OW42037   5.443   2.447   1.831
12397SOL    HW142038   5.417   2.536   1.795
12397SOL    HW242039   5.441   2.379   1.758
12398SOL     OW42040   5.086   3.006   0.545
12398SOL    HW142041   5.169   2.977   0.497
12398SOL    HW242042   5.037   3.073   0.489
12399SOL     OW42043   4.274   2.058   0.885
12399SOL    HW142044   4.269   2.053   0.985
12399SOL    HW242045   4.276   2.154   0.856
12400SOL     OW42046   4.732   3.318   0.477
12400SOL    HW142047   4.686   3.390   0.425
12400SOL    HW242048   4.728   3.338   0.575
12401SOL     OW42049   4.075   3.663   0.853
12401SOL    HW142050   4.125   3.577   0.859
12401SOL    HW242051   4.140   3.740   0.850
12402SOL     OW42052   5.519   2.928   0.873
12402SOL    HW142053   5.457   2.913   0.797
12402SOL    HW242054   5.467   2.939   0.958
12403SOL     OW42055   4.951   3.412   1.506
12403SOL    HW142056   4.957   3.335   1.570
12403SOL    HW242057   4.899   3.386   1.426
12404SOL     OW42058   4.045   2.805   0.242
12404SOL    HW142059   4.127   2.844   0.200
12404SOL    HW242060   4.018   2.723   0.193
12405SOL     OW42061   5.182   2.597   0.728
12405SOL    HW142062   5.177   2.532   0.803
12405SOL    HW242063   5.262   2.656   0.741
12406SOL     OW42064   4.185   3.128   1.727
12406SOL    HW142065   4.135   3.129   1.641
12406SOL    HW242066   4.122   3.110   1.803
12407SOL     OW42067   4.835   3.638   0.237
12407SOL    HW142068   4.775   3.576   0.287
12407SOL    HW242069   4.866   3.594   0.152
12408SOL     OW42070   3.926   2.147   1.498
12408SOL    HW142071   3.846   2.207   1.485
12408SOL    HW242072   3.916   2.098   1.584
12409SOL     OW42073   5.356   3.239   0.081
12409SOL    HW142074   5.324   3.333   0.071
12409SOL    HW242075   5.280   3.176   0.069
12410SOL     OW42076   4.188   3.605   0.323
12410SOL    HW142077   4.221   3.644   0.409
12410SOL    HW242078   4.264   3.598   0.258
12411SOL     OW42079   5.124   1.969   0.426
12411SOL    HW142080   5.100   1.932   0.336
12411SOL    HW242081   5.223   1.985   0.430
12412SOL     OW42082   3.973   3.647   1.241
12412SOL    HW142083   4.030   3.582   1.291
12412SOL    HW242084   3.957   3.614   1.148
12413SOL     OW42085   4.664   3.560   0.904
12413SOL    HW142086   4.744   3.503   0.925
12413SOL    HW242087   4.615   3.520   0.827
12414SOL     OW42088   4.106   2.562   0.480
12414SOL    HW142089   4.151   2.472   0.477
12414SOL    HW242090   4.012   2.551   0.513
12415SOL     OW42091   5.271   2.084   1.729
12415SOL    HW142092   5.266   2.121   1.821
12415SOL    HW242093   5.199   2.015   1.717
12416SOL     OW42094   4.505   2.126   1.749
12416SOL    HW142095   4.572   2.065   1.792
12416SOL    HW242096   4.432   2.145   1.814
12417SOL     OW42097   4.612   3.376   1.195
12417SOL    HW142098   4.589   3.351   1.101
12417SOL    HW242099   4.673   3.307   1.234
12418SOL     OW42100   5.075   2.452   1.433
12418SOL    HW142101   5.103   2.409   1.518
12418SOL    HW242102   5.100   2.548   1.434
12419SOL     OW42103   4.527   3.264   0.924
12419SOL    HW142104   4.617   3.278   0.882
12419SOL    HW242105   4.456   3.266   0.853
12420SOL     OW42106   4.646   2.365   0.899
12420SOL    HW142107   4.621   2.356   0.803
12420SOL    HW242108   4.694   2.283   0.930
12421SOL     OW42109   5.158   3.050   0.041
12421SOL    HW142110   5.190   2.974   0.098
12421SOL    HW242111   5.066   3.077   0.071
12422SOL     OW42112   4.800   2.545   1.464
12422SOL    HW142113   4.720   2.484   1.467
12422SOL    HW242114   4.881   2.492   1.440
12423SOL     OW42115   4.951   3.432   0.793
12423SOL    HW142116   4.972   3.506   0.728
12423SOL    HW242117   5.019   3.432   0.866
12424SOL     OW42118   4.183   3.014   0.741
12424SOL    HW142119   4.112   2.987   0.806
12424SOL    HW242120   4.157   2.986   0.648
12425SOL     OW42121   4.995   3.659   0.591
12425SOL    HW142122   5.039   3.723   0.527
12425SOL    HW242123   4.945   3.711   0.661
12426SOL     OW42124   4.756   2.411   0.016
12426SOL    HW142125   4.715   2.493  -0.023
12426SOL    HW242126   4.820   2.437   0.089
12427SOL     OW42127   3.802   2.418   1.386
12427SOL    HW142128   3.894   2.417   1.345
12427SOL    HW242129   3.796   2.492   1.453
12428SOL     OW42130   4.285   2.084   1.147
12428SOL    HW142131   4.323   2.000   1.184
12428SOL    HW242132   4.197   2.103   1.191
12429SOL     OW42133   4.741   1.901   0.753
12429SOL    HW142134   4.669   1.906   0.684
12429SOL    HW242135   4.717   1.832   0.822
12430SOL     OW42136   5.153   3.035   0.867
12430SOL    HW142137   5.098   2.951   0.860
12430SOL    HW242138   5.179   3.064   0.775
12431SOL     OW42139   5.190   2.452   0.992
12431SOL    HW142140   5.160   2.357   0.999
12431SOL    HW242141   5.263   2.468   1.058
12432SOL     OW42142   5.581   2.695   0.377
12432SOL    HW142143   5.623   2.631   0.441
12432SOL    HW242144   5.543   2.644   0.299
12433SOL     OW42145   4.212   3.247   0.174
12433SOL    HW142146   4.125   3.232   0.221
12433SOL    HW242147   4.195   3.273   0.079
12434SOL     OW42148   5.388   3.142   0.657
12434SOL    HW142149   5.487   3.150   0.671
12434SOL    HW242150   5.343   3.226   0.688
12435SOL     OW42151   5.114   2.437   0.078
12435SOL    HW142152   5.060   2.416   0.159
12435SOL    HW242153   5.205   2.396   0.087
12436SOL     OW42154   5.478   3.085   1.588
12436SOL    HW142155   5.569   3.046   1.575
12436SOL    HW242156   5.486   3.181   1.612
12437SOL     OW42157   4.788   3.209   1.340
12437SOL    HW142158   4.708   3.186   1.395
12437SOL    HW242159   4.871   3.183   1.389
12438SOL     OW42160   5.316   3.491   1.625
12438SOL    HW142161   5.343   3.525   1.535
12438SOL    HW242162   5.395   3.453   1.671
12439SOL     OW42163   4.835   3.057   1.100
12439SOL    HW142164   4.795   3.101   1.181
12439SOL    HW242165   4.794   3.094   1.017
12440SOL     OW42166   5.362   2.961   1.079
12440SOL    HW142167   5.367   3.042   1.138
12440SOL    HW242168   5.276   2.963   1.028
12441SOL     OW42169   4.639   1.951   1.402
12441SOL    HW142170   4.664   1.931   1.307
12441SOL    HW242171   4.711   2.007   1.444
12442SOL     OW42172   4.704   2.978   1.719
12442SOL    HW142173   4.605   2.984   1.729
12442SOL    HW242174   4.727   2.898   1.663
12443SOL     OW42175   4.429   2.912   0.368
12443SOL    HW142176   4.415   2.919   0.467
12443SOL    HW242177   4.513   2.861   0.350
12444SOL     OW42178   4.134   2.675   1.251
12444SOL    HW142179   4.220   2.687   1.301
12444SOL    HW242180   4.092   2.588   1.278
12445SOL     OW42181   4.998   2.248   1.262
12445SOL    HW142182   5.019   2.322   1.326
12445SOL    HW242183   4.909   2.265   1.219
12446SOL     OW42184   3.788   3.426   1.331
12446SOL    HW142185   3.742   3.508   1.297
12446SOL    HW242186   3.886   3.445   1.340
12447SOL     OW42187   4.091   2.962   0.501
12447SOL    HW142188   4.084   3.045   0.445
12447SOL    HW242189   4.095   2.882   0.441
12448SOL     OW42190   4.290   2.399   0.865
12448SOL    HW142191   4.302   2.465   0.791
12448SOL    HW242192   4.336   2.433   0.948
12449SOL     OW42193   4.976   3.210   0.388
12449SOL    HW142194   5.026   3.287   0.428
12449SOL    HW242195   4.881   3.212   0.420
12450SOL     OW42196   4.996   3.307   1.142
12450SOL    HW142197   5.043   3.320   1.229
12450SOL    HW242198   4.930   3.233   1.151
12451SOL     OW42199   5.306   2.501   0.472
12451SOL    HW142200   5.275   2.562   0.545
12451SOL    HW242201   5.356   2.553   0.403
12452SOL     OW42202   4.078   3.372   1.329
12452SOL    HW142203   4.057   3.328   1.242
12452SOL    HW242204   4.175   3.398   1.332
12453SOL     OW42205   4.126   2.613   1.598
12453SOL    HW142206   4.194   2.668   1.551
12453SOL    HW242207   4.166   2.525   1.625
12454SOL     OW42208   5.311   2.641   1.670
12454SOL    HW142209   5.219   2.679   1.665
12454SOL    HW242210   5.371   2.688   1.605
12455SOL     OW42211   4.737   1.967   1.770
12455SOL    HW142212   4.743   2.052   1.718
12455SOL    HW242213   4.769   1.891   1.713
12456SOL     OW42214   4.228   1.912   1.740
12456SOL    HW142215   4.186   1.855   1.670
12456SOL    HW242216   4.162   1.981   1.772
12457SOL     OW42217   5.084   2.724   1.045
12457SOL    HW142218   5.009   2.724   0.979
12457SOL    HW242219   5.121   2.632   1.054
12458SOL     OW42220   4.933   2.387   0.275
12458SOL    HW142221   4.946   2.303   0.329
12458SOL    HW242222   4.904   2.461   0.335
12459SOL     OW42223   4.031   2.075   1.231
12459SOL    HW142224   4.008   2.112   1.321
12459SOL    HW242225   4.001   1.980   1.225
12460SOL     OW42226   3.761   3.172   1.282
12460SOL    HW142227   3.814   3.123   1.350
12460SOL    HW242228   3.783   3.270   1.287
12461SOL     OW42229   4.456   2.496   1.064
12461SOL    HW142230   4.515   2.470   0.988
12461SOL    HW242231   4.428   2.592   1.053
12462SOL     OW42232   5.452   2.797   1.854
12462SOL    HW142233   5.406   2.790   1.765
12462SOL    HW242234   5.390   2.841   1.920
12463SOL     OW42235   4.031   1.925   0.618
12463SOL    HW142236   4.020   2.019   0.651
12463SOL    HW242237   4.026   1.862   0.695
12464SOL     OW42238   5.346   2.229   0.374
12464SOL    HW142239   5.348   2.153   0.438
12464SOL    HW242240   5.298   2.306   0.414
12465SOL     OW42241   4.747   2.628   0.966
12465SOL    HW142242   4.762   2.649   1.062
12465SOL    HW242243   4.717   2.533   0.957
12466SOL     OW42244   4.704   3.435   1.700
12466SOL    HW142245   4.684   3.479   1.612
12466SOL    HW242246   4.743   3.344   1.684
12467SOL     OW42247   5.583   3.380   1.605
12467SOL    HW142248   5.597   3.407   1.510
12467SOL    HW242249   5.666   3.402   1.658
12468SOL     OW42250   4.074   2.760   1.804
12468SOL    HW142251   4.150   2.804   1.852
12468SOL    HW242252   4.109   2.713   1.722
12469SOL     OW42253   5.264   2.136   0.125
12469SOL    HW142254   5.203   2.061   0.148
12469SOL    HW242255   5.286   2.188   0.208
12470SOL     OW42256   5.027   2.700   0.042
12470SOL    HW142257   5.061   2.607   0.057
12470SOL    HW242258   5.045   2.727  -0.053
12471SOL     OW42259   4.792   3.195   0.849
12471SOL    HW142260   4.799   3.111   0.794
12471SOL    HW242261   4.854   3.264   0.813
12472SOL     OW42262   4.043   2.672   0.949
12472SOL    HW142263   4.136   2.708   0.954
12472SOL    HW242264   4.037   2.587   1.001
12473SOL     OW42265   4.063   2.371   1.006
12473SOL    HW142266   4.011   2.288   0.989
12473SOL    HW242267   4.140   2.376   0.942
12474SOL     OW42268   4.862   2.242   1.678
12474SOL    HW142269   4.817   2.305   1.742
12474SOL    HW242270   4.955   2.273   1.661
12475SOL     OW42271   4.884   2.069   1.477
12475SOL    HW142272   4.884   2.133   1.554
12475SOL    HW242273   4.912   2.117   1.394
12476SOL     OW42274   3.732   3.188   0.200
12476SOL    HW142275   3.639   3.209   0.169
12476SOL    HW242276   3.742   3.089   0.213
12477SOL     OW42277   3.812   3.663   0.927
12477SOL    HW142278   3.770   3.577   0.900
12477SOL    HW242279   3.906   3.666   0.893
12478SOL     OW42280   4.228   3.430   0.910
12478SOL    HW142281   4.294   3.504   0.919
12478SOL    HW242282   4.272   3.351   0.868
12479SOL     OW42283   4.726   2.658   1.238
12479SOL    HW142284   4.767   2.626   1.324
12479SOL    HW242285   4.630   2.631   1.235
12480SOL     OW42286   3.764   2.406   1.114
12480SOL    HW142287   3.849   2.373   1.073
12480SOL    HW242288   3.777   2.421   1.212
12481SOL     OW42289   3.913   2.382   1.722
12481SOL    HW142290   3.972   2.342   1.652
12481SOL    HW242291   3.855   2.453   1.681
12482SOL     OW42292   5.093   2.812   1.660
12482SOL    HW142293   5.132   2.901   1.680
12482SOL    HW242294   5.103   2.792   1.563
12483SOL     OW42295   5.381   2.466   1.206
12483SOL    HW142296   5.343   2.397   1.268
12483SOL    HW242297   5.463   2.430   1.162
12484SOL     OW42298   3.976   3.426   1.744
12484SOL    HW142299   3.946   3.483   1.820
12484SOL    HW242300   3.969   3.329   1.770
12485SOL     OW42301   4.395   2.326   1.269
12485SOL    HW142302   4.361   2.237   1.239
12485SOL    HW242303   4.421   2.380   1.189
12486SOL     OW42304   4.654   3.540   1.465
12486SOL    HW142305   4.630   3.522   1.370
12486SOL    HW242306   4.684   3.634   1.475
12487SOL     OW42307   4.197   2.362   0.191
12487SOL    HW142308   4.258   2.442   0.195
12487SOL    HW242309   4.102   2.393   0.198
12488SOL     OW42310   3.883   2.999   1.466
12488SOL    HW142311   3.905   2.938   1.542
12488SOL    HW242312   3.893   2.950   1.380
12489SOL     OW42313   5.071   2.921   1.234
12489SOL    HW142314   5.095   2.858   1.160
12489SOL    HW242315   4.981   2.961   1.216
12490SOL     OW42316   5.026   2.717   0.309
12490SOL    HW142317   4.940   2.686   0.351
12490SOL    HW242318   5.022   2.703   0.210
12491SOL     OW42319   5.483   3.609   1.154
12491SOL    HW142320   5.544   3.639   1.081
12491SOL    HW242321   5.445   3.520   1.132
12492SOL     OW42322   4.976   3.593   1.128
12492SOL    HW142323   5.060   3.598   1.074
12492SOL    HW242324   4.953   3.497   1.146
12493SOL     OW42325   3.807   3.120   1.022
12493SOL    HW142326   3.802   3.119   1.122
12493SOL    HW242327   3.724   3.079   0.984
12494SOL     OW42328   4.412   3.524   1.716
12494SOL    HW142329   4.356   3.605   1.725
12494SOL    HW242330   4.464   3.528   1.630
12495SOL     OW42331   4.627   1.948   0.133
12495SOL    HW142332   4.678   1.949   0.047
12495SOL    HW242333   4.683   1.906   0.204
12496SOL     OW42334   5.450   1.997   0.523
12496SOL    HW142335   5.523   1.980   0.456
12496SOL    HW242336   5.419   1.910   0.561
12497SOL     OW42337   5.112   3.435   0.477
12497SOL    HW142338   5.179   3.447   0.403
12497SOL    HW242339   5.072   3.524   0.500
12498SOL     OW42340   3.854   3.656   1.851
12498SOL    HW142341   3.813   3.582   1.904
12498SOL    HW242342   3.918   3.707   1.909
12499SOL     OW42343   5.004   2.789   0.672
12499SOL    HW142344   5.064   2.708   0.674
12499SOL    HW242345   5.044   2.858   0.612
12500SOL     OW42346   4.554   3.135   1.422
12500SOL    HW142347   4.549   3.168   1.517
12500SOL    HW242348   4.468   3.154   1.376
12501SOL     OW42349   4.396   3.478   0.154
12501SOL    HW142350   4.405   3.488   0.055
12501SOL    HW242351   4.356   3.389   0.175
12502SOL     OW42352   5.374   3.582   1.394
12502SOL    HW142353   5.427   3.592   1.310
12502SOL    HW242354   5.347   3.672   1.428
12503SOL     OW42355   5.565   2.037   0.963
12503SOL    HW142356   5.604   1.952   0.927
12503SOL    HW242357   5.467   2.039   0.944
12504SOL     OW42358   3.987   2.188   0.720
12504SOL    HW142359   3.908   2.239   0.686
12504SOL    HW242360   3.978   2.173   0.818
12505SOL     OW42361   4.918   3.474   0.031
12505SOL    HW142362   4.924   3.381   0.068
12505SOL    HW242363   4.859   3.474  -0.049
12506SOL     OW42364   4.546   2.864   1.372
12506SOL    HW142365   4.586   2.863   1.280
12506SOL    HW242366   4.556   2.956   1.412
12507SOL     OW42367   4.640   2.772   0.291
12507SOL    HW142368   4.703   2.810   0.223
12507SOL    HW242369   4.680   2.689   0.330
12508SOL     OW42370   5.228   3.469   0.044
12508SOL    HW142371   5.136   3.506   0.051
12508SOL    HW242372   5.266   3.489  -0.046
12509SOL     OW42373   4.096   3.150   1.490
12509SOL    HW142374   4.083   3.243   1.456
12509SOL    HW242375   4.012   3.098   1.477
12510SOL     OW42376   5.338   3.154   1.289
12510SOL    HW142377   5.398   3.157   1.369
12510SOL    HW242378   5.263   3.218   1.302
12511SOL     OW42379   4.763   2.960   0.696
12511SOL    HW142380   4.693   2.913   0.750
12511SOL    HW242381   4.822   2.892   0.653
12512SOL     OW42382   4.738   2.098   0.971
12512SOL    HW142383   4.730   2.062   0.878
12512SOL    HW242384   4.736   2.022   1.036
12513SOL     OW42385   4.314   3.349   0.491
12513SOL    HW142386   4.356   3.291   0.421
12513SOL    HW242387   4.270   3.428   0.447
12514SOL     OW42388   3.979   3.210   0.290
12514SOL    HW142389   3.883   3.211   0.263
12514SOL    HW242390   3.991   3.263   0.374
12515SOL     OW42391   3.829   2.875   1.726
12515SOL    HW142392   3.752   2.842   1.780
12515SOL    HW242393   3.914   2.845   1.768
12516SOL     OW42394   4.396   2.065   1.489
12516SOL    HW142395   4.486   2.049   1.449
12516SOL    HW242396   4.404   2.070   1.588
12517SOL     OW42397   3.799   2.207   0.033
12517SOL    HW142398   3.707   2.179   0.004
12517SOL    HW242399   3.830   2.284  -0.023
12518SOL     OW42400   5.164   2.718   1.398
12518SOL    HW142401   5.107   2.770   1.335
12518SOL    HW242402   5.260   2.730   1.374
12519SOL     OW42403   3.796   2.028   0.318
12519SOL    HW142404   3.779   2.111   0.264
12519SOL    HW242405   3.886   1.991   0.296
12520SOL     OW42406   4.907   3.197   0.119
12520SOL    HW142407   4.808   3.186   0.121
12520SOL    HW242408   4.941   3.212   0.212
12521SOL     OW42409   4.337   2.704   1.431
12521SOL    HW142410   4.393   2.785   1.414
12521SOL    HW242411   4.396   2.624   1.434
12522SOL     OW42412   5.217   3.629   0.959
12522SOL    HW142413   5.250   3.693   0.890
12522SOL    HW242414   5.283   3.623   1.034
12523SOL     OW42415   4.440   2.427   1.708
12523SOL    HW142416   4.459   2.492   1.782
12523SOL    HW242417   4.500   2.347   1.717
12524SOL     OW42418   5.174   3.082   1.633
12524SOL    HW142419   5.165   3.072   1.732
12524SOL    HW242420   5.270   3.075   1.607
12525SOL     OW42421   4.114   3.603   1.560
12525SOL    HW142422   4.023   3.644   1.558
12525SOL    HW242423   4.107   3.509   1.592
12526SOL     OW42424   5.398   2.745   1.254
12526SOL    HW142425   5.371   2.656   1.217
12526SOL    HW242426   5.399   2.813   1.181
12527SOL     OW42427   4.949   2.187   0.449
12527SOL    HW142428   5.014   2.113   0.438
12527SOL    HW242429   4.969   2.237   0.533
12528SOL     OW42430   4.318   2.607   0.652
12528SOL    HW142431   4.368   2.692   0.633
12528SOL    HW242432   4.230   2.609   0.604
12529SOL     OW42433   5.501   2.204   1.642
12529SOL    HW142434   5.484   2.235   1.548
12529SOL    HW242435   5.417   2.167   1.680
12530SOL     OW42436   5.454   2.796   1.517
12530SOL    HW142437   5.492   2.887   1.532
12530SOL    HW242438   5.446   2.779   1.418
12531SOL     OW42439   4.583   3.236   0.016
12531SOL    HW142440   4.537   3.251   0.104
12531SOL    HW242441   4.627   3.321  -0.014
12532SOL     OW42442   4.385   3.652   0.953
12532SOL    HW142443   4.339   3.740   0.940
12532SOL    HW242444   4.484   3.664   0.946
12533SOL     OW42445   4.583   2.818   0.861
12533SOL    HW142446   4.637   2.749   0.909
12533SOL    HW242447   4.551   2.887   0.927
12534SOL     OW42448   4.807   2.846   0.087
12534SOL    HW142449   4.784   2.899   0.005
12534SOL    HW242450   4.888   2.790   0.068
12535SOL     OW42451   5.585   3.431   0.851
12535SOL    HW142452   5.514   3.419   0.781
12535SOL    HW242453   5.586   3.352   0.911
12536SOL     OW42454   3.945   3.176   1.844
12536SOL    HW142455   3.880   3.103   1.823
12536SOL    HW242456   3.949   3.190   1.942
12537SOL     OW42457   3.803   3.102   0.653
12537SOL    HW142458   3.802   3.055   0.741
12537SOL    HW242459   3.885   3.074   0.602
12538SOL     OW42460   4.396   3.253   1.624
12538SOL    HW142461   4.318   3.203   1.662
12538SOL    HW242462   4.393   3.348   1.655
12539SOL     OW42463   5.548   2.054   1.227
12539SOL    HW142464   5.544   1.964   1.271
12539SOL    HW242465   5.551   2.043   1.128
12540SOL     OW42466   4.152   2.286   0.520
12540SOL    HW142467   4.182   2.214   0.458
12540SOL    HW242468   4.113   2.246   0.603
12541SOL     OW42469   5.429   3.349   1.104
12541SOL    HW142470   5.336   3.324   1.077
12541SOL    HW242471   5.455   3.299   1.186
12542SOL     OW42472   4.041   2.409   1.280
12542SOL    HW142473   4.079   2.350   1.352
12542SOL    HW242474   4.081   2.383   1.192
12543SOL     OW42475   4.536   3.448   0.687
12543SOL    HW142476   4.568   3.458   0.593
12543SOL    HW242477   4.457   3.386   0.689
12544SOL     OW42478   5.148   2.076   1.112
12544SOL    HW142479   5.200   2.011   1.167
12544SOL    HW242480   5.099   2.139   1.173
12545SOL     OW42481   4.725   1.896   1.154
12545SOL    HW142482   4.662   1.824   1.123
12545SOL    HW242483   4.818   1.860   1.154
12546SOL     OW42484   4.494   3.192   0.301
12546SOL    HW142485   4.448   3.105   0.318
12546SOL    HW242486   4.585   3.189   0.342
12547SOL     OW42487   4.342   3.429   1.284
12547SOL    HW142488   4.337   3.511   1.341
12547SOL    HW242489   4.431   3.426   1.239
12548SOL     OW42490   5.076   1.914   0.168
12548SOL    HW142491   5.111   1.873   0.084
12548SOL    HW242492   4.986   1.876   0.188
12549SOL     OW42493   5.024   2.315   0.691
12549SOL    HW142494   4.965   2.395   0.695
12549SOL    HW242495   5.039   2.280   0.784
12550SOL     OW42496   5.317   2.083   0.882
12550SOL    HW142497   5.233   2.082   0.936
12550SOL    HW242498   5.319   2.166   0.826
12551SOL     OW42499   3.763   2.939   0.300
12551SOL    HW142500   3.862   2.928   0.291
12551SOL    HW242501   3.723   2.853   0.332
12552SOL     OW42502   4.599   3.508   0.337
12552SOL    HW142503   4.522   3.473   0.283
12552SOL    HW242504   4.567   3.579   0.399
12553SOL     OW42505   3.954   2.490   1.975
12553SOL    HW142506   3.861   2.488   2.012
12553SOL    HW242507   3.955   2.451   1.883
12554SOL     OW42508   3.949   2.137   2.858
12554SOL    HW142509   3.984   2.120   2.950
12554SOL    HW242510   3.861   2.092   2.846
12555SOL     OW42511   3.743   2.230   2.509
12555SOL    HW142512   3.661   2.273   2.548
12555SOL    HW242513   3.715   2.157   2.446
12556SOL     OW42514   4.293   3.137   3.027
12556SOL    HW142515   4.200   3.130   2.990
12556SOL    HW242516   4.304   3.226   3.071
12557SOL     OW42517   5.279   3.373   2.565
12557SOL    HW142518   5.222   3.357   2.646
12557SOL    HW242519   5.220   3.383   2.485
12558SOL     OW42520   4.859   2.565   2.579
12558SOL    HW142521   4.916   2.643   2.554
12558SOL    HW242522   4.799   2.591   2.655
12559SOL     OW42523   5.479   2.469   2.093
12559SOL    HW142524   5.467   2.456   1.994
12559SOL    HW242525   5.449   2.388   2.142
12560SOL     OW42526   4.492   3.006   2.885
12560SOL    HW142527   4.414   3.023   2.945
12560SOL    HW242528   4.526   3.093   2.849
12561SOL     OW42529   4.574   2.660   3.685
12561SOL    HW142530   4.570   2.736   3.750
12561SOL    HW242531   4.596   2.696   3.594
12562SOL     OW42532   4.409   2.874   2.527
12562SOL    HW142533   4.478   2.858   2.597
12562SOL    HW242534   4.336   2.931   2.565
12563SOL     OW42535   4.410   3.023   3.665
12563SOL    HW142536   4.470   3.102   3.679
12563SOL    HW242537   4.324   3.054   3.624
12564SOL     OW42538   4.059   3.297   2.923
12564SOL    HW142539   3.981   3.266   2.870
12564SOL    HW242540   4.117   3.355   2.866
12565SOL     OW42541   5.184   3.367   3.201
12565SOL    HW142542   5.208   3.461   3.227
12565SOL    HW242543   5.168   3.313   3.283
12566SOL     OW42544   4.162   2.254   3.361
12566SOL    HW142545   4.244   2.198   3.370
12566SOL    HW242546   4.081   2.196   3.365
12567SOL     OW42547   5.327   2.309   2.599
12567SOL    HW142548   5.253   2.355   2.549
12567SOL    HW242549   5.378   2.377   2.652
12568SOL     OW42550   3.955   3.575   2.345
12568SOL    HW142551   3.989   3.652   2.399
12568SOL    HW242552   3.999   3.575   2.255
12569SOL     OW42553   4.851   3.203   3.552
12569SOL    HW142554   4.898   3.203   3.640
12569SOL    HW242555   4.803   3.116   3.541
12570SOL     OW42556   3.954   3.296   2.400
12570SOL    HW142557   3.928   3.392   2.400
12570SOL    HW242558   3.883   3.242   2.445
12571SOL     OW42559   3.964   2.953   2.748
12571SOL    HW142560   3.978   2.869   2.800
12571SOL    HW242561   3.909   3.017   2.803
12572SOL     OW42562   4.344   3.648   3.301
12572SOL    HW142563   4.252   3.631   3.336
12572SOL    HW242564   4.372   3.740   3.327
12573SOL     OW42565   4.330   2.826   1.985
12573SOL    HW142566   4.337   2.910   1.931
12573SOL    HW242567   4.376   2.839   2.073
12574SOL     OW42568   5.318   1.976   3.342
12574SOL    HW142569   5.300   2.043   3.270
12574SOL    HW242570   5.315   2.022   3.431
12575SOL     OW42571   3.846   2.505   2.425
12575SOL    HW142572   3.801   2.417   2.442
12575SOL    HW242573   3.845   2.559   2.509
12576SOL     OW42574   5.566   3.629   2.221
12576SOL    HW142575   5.620   3.600   2.301
12576SOL    HW242576   5.596   3.719   2.192
12577SOL     OW42577   3.751   3.458   1.979
12577SOL    HW142578   3.732   3.362   2.000
12577SOL    HW242579   3.718   3.516   2.054
12578SOL     OW42580   5.413   2.784   2.474
12578SOL    HW142581   5.508   2.755   2.482
12578SOL    HW242582   5.405   2.849   2.399
12579SOL     OW42583   5.365   2.970   2.294
12579SOL    HW142584   5.451   2.972   2.242
12579SOL    HW242585   5.379   3.017   2.382
12580SOL     OW42586   3.837   2.599   3.459
12580SOL    HW142587   3.925   2.586   3.504
12580SOL    HW242588   3.824   2.696   3.437
12581SOL     OW42589   4.337   3.227   2.588
12581SOL    HW142590   4.288   3.140   2.597
12581SOL    HW242591   4.314   3.270   2.501
12582SOL     OW42592   5.017   3.090   3.285
12582SOL    HW142593   5.054   3.017   3.227
12582SOL    HW242594   5.069   3.095   3.370
12583SOL     OW42595   4.533   1.866   2.364
12583SOL    HW142596   4.573   1.957   2.355
12583SOL    HW242597   4.433   1.874   2.370
12584SOL     OW42598   3.921   2.838   3.126
12584SOL    HW142599   4.010   2.793   3.112
12584SOL    HW242600   3.848   2.773   3.107
12585SOL     OW42601   4.911   3.654   3.478
12585SOL    HW142602   4.935   3.714   3.402
12585SOL    HW242603   4.918   3.559   3.448
12586SOL     OW42604   4.041   2.113   3.663
12586SOL    HW142605   4.112   2.184   3.669
12586SOL    HW242606   3.953   2.152   3.691
12587SOL     OW42607   5.190   3.279   2.815
12587SOL    HW142608   5.131   3.285   2.895
12587SOL    HW242609   5.175   3.191   2.769
12588SOL     OW42610   5.391   3.576   2.434
12588SOL    HW142611   5.350   3.553   2.346
12588SOL    HW242612   5.373   3.502   2.499
12589SOL     OW42613   4.322   2.591   2.132
12589SOL    HW142614   4.346   2.660   2.064
12589SOL    HW242615   4.244   2.624   2.186
12590SOL     OW42616   5.005   2.207   2.806
12590SOL    HW142617   4.919   2.157   2.793
12590SOL    HW242618   5.067   2.153   2.862
12591SOL     OW42619   5.300   3.524   2.169
12591SOL    HW142620   5.389   3.570   2.172
12591SOL    HW242621   5.279   3.500   2.074
12592SOL     OW42622   4.531   2.467   3.327
12592SOL    HW142623   4.484   2.464   3.416
12592SOL    HW242624   4.480   2.412   3.261
12593SOL     OW42625   5.118   2.331   3.536
12593SOL    HW142626   5.098   2.374   3.624
12593SOL    HW242627   5.196   2.269   3.545
12594SOL     OW42628   4.697   2.752   3.434
12594SOL    HW142629   4.743   2.668   3.405
12594SOL    HW242630   4.641   2.786   3.359
12595SOL     OW42631   4.715   2.272   3.104
12595SOL    HW142632   4.638   2.306   3.158
12595SOL    HW242633   4.681   2.221   3.025
12596SOL     OW42634   4.765   2.563   2.291
12596SOL    HW142635   4.791   2.559   2.387
12596SOL    HW242636   4.680   2.512   2.277
12597SOL     OW42637   3.800   2.673   2.651
12597SOL    HW142638   3.899   2.661   2.660
12597SOL    HW242639   3.776   2.768   2.672
12598SOL     OW42640   3.854   3.683   3.433
12598SOL    HW142641   3.844   3.668   3.532
12598SOL    HW242642   3.768   3.719   3.397
12599SOL     OW42643   4.589   2.210   2.057
12599SOL    HW142644   4.648   2.273   2.008
12599SOL    HW242645   4.608   2.116   2.028
12600SOL     OW42646   5.443   2.447   3.693
12600SOL    HW142647   5.417   2.536   3.657
12600SOL    HW242648   5.441   2.379   3.620
12601SOL     OW42649   5.086   3.006   2.407
12601SOL    HW142650   5.169   2.977   2.359
12601SOL    HW242651   5.037   3.073   2.351
12602SOL     OW42652   4.732   3.318   2.339
12602SOL    HW142653   4.686   3.390   2.287
12602SOL    HW242654   4.728   3.338   2.437
12603SOL     OW42655   4.075   3.663   2.715
12603SOL    HW142656   4.125   3.577   2.721
12603SOL    HW242657   4.140   3.740   2.712
12604SOL     OW42658   5.519   2.928   2.735
12604SOL    HW142659   5.457   2.913   2.659
12604SOL    HW242660   5.467   2.939   2.820
12605SOL     OW42661   4.951   3.412   3.368
12605SOL    HW142662   4.957   3.335   3.432
12605SOL    HW242663   4.899   3.386   3.288
12606SOL     OW42664   4.045   2.805   2.104
12606SOL    HW142665   4.127   2.844   2.062
12606SOL    HW242666   4.018   2.723   2.055
12607SOL     OW42667   5.182   2.597   2.590
12607SOL    HW142668   5.177   2.532   2.665
12607SOL    HW242669   5.262   2.656   2.603
12608SOL     OW42670   4.185   3.128   3.589
12608SOL    HW142671   4.135   3.129   3.503
12608SOL    HW242672   4.122   3.110   3.665
12609SOL     OW42673   4.835   3.638   2.099
12609SOL    HW142674   4.775   3.576   2.149
12609SOL    HW242675   4.866   3.594   2.014
12610SOL     OW42676   3.926   2.147   3.360
12610SOL    HW142677   3.846   2.207   3.347
12610SOL    HW242678   3.916   2.098   3.446
12611SOL     OW42679   5.356   3.239   1.943
12611SOL    HW142680   5.324   3.333   1.933
12611SOL    HW242681   5.280   3.176   1.931
12612SOL     OW42682   4.188   3.605   2.185
12612SOL    HW142683   4.221   3.644   2.271
12612SOL    HW242684   4.264   3.598   2.120
12613SOL     OW42685   5.124   1.969   2.288
12613SOL    HW142686   5.100   1.932   2.198
12613SOL    HW242687   5.223   1.985   2.292
12614SOL     OW42688   3.973   3.647   3.103
12614SOL    HW142689   4.030   3.582   3.153
12614SOL    HW242690   3.957   3.614   3.010
12615SOL     OW42691   4.664   3.560   2.766
12615SOL    HW142692   4.744   3.503   2.787
12615SOL    HW242693   4.615   3.520   2.689
12616SOL     OW42694   4.106   2.562   2.342
12616SOL    HW142695   4.151   2.472   2.339
12616SOL    HW242696   4.012   2.551   2.375
12617SOL     OW42697   5.271   2.084   3.591
12617SOL    HW142698   5.266   2.121   3.683
12617SOL    HW242699   5.199   2.015   3.579
12618SOL     OW42700   4.338   1.984   1.979
12618SOL    HW142701   4.436   1.962   1.986
12618SOL    HW242702   4.307   1.967   1.886
12619SOL     OW42703   4.505   2.126   3.611
12619SOL    HW142704   4.572   2.065   3.654
12619SOL    HW242705   4.432   2.145   3.676
12620SOL     OW42706   4.612   3.376   3.057
12620SOL    HW142707   4.589   3.351   2.963
12620SOL    HW242708   4.673   3.307   3.096
12621SOL     OW42709   5.075   2.452   3.295
12621SOL    HW142710   5.103   2.409   3.380
12621SOL    HW242711   5.100   2.548   3.296
12622SOL     OW42712   4.527   3.264   2.786
12622SOL    HW142713   4.617   3.278   2.744
12622SOL    HW242714   4.456   3.266   2.715
12623SOL     OW42715   4.646   2.365   2.761
12623SOL    HW142716   4.621   2.356   2.665
12623SOL    HW242717   4.694   2.283   2.792
12624SOL     OW42718   4.263   1.926   2.374
12624SOL    HW142719   4.182   1.927   2.432
12624SOL    HW242720   4.266   2.009   2.319
12625SOL     OW42721   5.158   3.050   1.903
12625SOL    HW142722   5.190   2.974   1.960
12625SOL    HW242723   5.066   3.077   1.933
12626SOL     OW42724   4.021   1.897   2.033
12626SOL    HW142725   4.070   1.981   2.012
12626SOL    HW242726   4.083   1.832   2.078
12627SOL     OW42727   4.659   2.098   2.342
12627SOL    HW142728   4.611   2.139   2.264
12627SOL    HW242729   4.758   2.096   2.323
12628SOL     OW42730   4.800   2.545   3.326
12628SOL    HW142731   4.720   2.484   3.329
12628SOL    HW242732   4.881   2.492   3.302
12629SOL     OW42733   4.951   3.432   2.655
12629SOL    HW142734   4.972   3.506   2.590
12629SOL    HW242735   5.019   3.432   2.728
12630SOL     OW42736   4.183   3.014   2.603
12630SOL    HW142737   4.112   2.987   2.668
12630SOL    HW242738   4.157   2.986   2.510
12631SOL     OW42739   4.995   3.659   2.453
12631SOL    HW142740   5.039   3.723   2.389
12631SOL    HW242741   4.945   3.711   2.523
12632SOL     OW42742   4.756   2.411   1.878
12632SOL    HW142743   4.715   2.493   1.839
12632SOL    HW242744   4.820   2.437   1.951
12633SOL     OW42745   3.802   2.418   3.248
12633SOL    HW142746   3.894   2.417   3.207
12633SOL    HW242747   3.796   2.492   3.315
12634SOL     OW42748   4.285   2.084   3.009
12634SOL    HW142749   4.323   2.000   3.046
12634SOL    HW242750   4.197   2.103   3.053
12635SOL     OW42751   4.590   2.316   2.504
12635SOL    HW142752   4.558   2.388   2.442
12635SOL    HW242753   4.614   2.235   2.451
12636SOL     OW42754   4.741   1.901   2.615
12636SOL    HW142755   4.669   1.906   2.546
12636SOL    HW242756   4.717   1.832   2.684
12637SOL     OW42757   5.153   3.035   2.729
12637SOL    HW142758   5.098   2.951   2.722
12637SOL    HW242759   5.179   3.064   2.637
12638SOL     OW42760   5.190   2.452   2.854
12638SOL    HW142761   5.160   2.357   2.861
12638SOL    HW242762   5.263   2.468   2.920
12639SOL     OW42763   5.581   2.695   2.239
12639SOL    HW142764   5.623   2.631   2.303
12639SOL    HW242765   5.543   2.644   2.161
12640SOL     OW42766   4.212   3.247   2.036
12640SOL    HW142767   4.125   3.232   2.083
12640SOL    HW242768   4.195   3.273   1.941
12641SOL     OW42769   5.388   3.142   2.519
12641SOL    HW142770   5.487   3.150   2.533
12641SOL    HW242771   5.343   3.226   2.550
12642SOL     OW42772   5.114   2.437   1.940
12642SOL    HW142773   5.060   2.416   2.021
12642SOL    HW242774   5.205   2.396   1.949
12643SOL     OW42775   4.251   2.118   2.190
12643SOL    HW142776   4.278   2.059   2.115
12643SOL    HW242777   4.251   2.213   2.159
12644SOL     OW42778   5.478   3.085   3.450
12644SOL    HW142779   5.569   3.046   3.437
12644SOL    HW242780   5.486   3.181   3.474
12645SOL     OW42781   4.788   3.209   3.202
12645SOL    HW142782   4.708   3.186   3.257
12645SOL    HW242783   4.871   3.183   3.251
12646SOL     OW42784   5.316   3.491   3.487
12646SOL    HW142785   5.343   3.525   3.397
12646SOL    HW242786   5.395   3.453   3.533
12647SOL     OW42787   4.835   3.057   2.962
12647SOL    HW142788   4.795   3.101   3.043
12647SOL    HW242789   4.794   3.094   2.879
12648SOL     OW42790   5.362   2.961   2.941
12648SOL    HW142791   5.367   3.042   3.000
12648SOL    HW242792   5.276   2.963   2.890
12649SOL     OW42793   4.639   1.951   3.264
12649SOL    HW142794   4.664   1.931   3.169
12649SOL    HW242795   4.711   2.007   3.306
12650SOL     OW42796   4.704   2.978   3.581
12650SOL    HW142797   4.605   2.984   3.591
12650SOL    HW242798   4.727   2.898   3.525
12651SOL     OW42799   4.429   2.912   2.230
12651SOL    HW142800   4.415   2.919   2.329
12651SOL    HW242801   4.513   2.861   2.212
12652SOL     OW42802   4.134   2.675   3.113
12652SOL    HW142803   4.220   2.687   3.163
12652SOL    HW242804   4.092   2.588   3.140
12653SOL     OW42805   4.998   2.248   3.124
12653SOL    HW142806   5.019   2.322   3.188
12653SOL    HW242807   4.909   2.265   3.081
12654SOL     OW42808   3.788   3.426   3.193
12654SOL    HW142809   3.742   3.508   3.159
12654SOL    HW242810   3.886   3.445   3.202
12655SOL     OW42811   4.091   2.962   2.363
12655SOL    HW142812   4.084   3.045   2.307
12655SOL    HW242813   4.095   2.882   2.303
12656SOL     OW42814   4.290   2.399   2.727
12656SOL    HW142815   4.302   2.465   2.653
12656SOL    HW242816   4.336   2.433   2.810
12657SOL     OW42817   4.976   3.210   2.250
12657SOL    HW142818   5.026   3.287   2.290
12657SOL    HW242819   4.881   3.212   2.282
12658SOL     OW42820   4.996   3.307   3.004
12658SOL    HW142821   5.043   3.320   3.091
12658SOL    HW242822   4.930   3.233   3.013
12659SOL     OW42823   5.306   2.501   2.334
12659SOL    HW142824   5.275   2.562   2.407
12659SOL    HW242825   5.356   2.553   2.265
12660SOL     OW42826   4.078   3.372   3.191
12660SOL    HW142827   4.057   3.328   3.104
12660SOL    HW242828   4.175   3.398   3.194
12661SOL     OW42829   4.126   2.613   3.460
12661SOL    HW142830   4.194   2.668   3.413
12661SOL    HW242831   4.166   2.525   3.487
12662SOL     OW42832   5.311   2.641   3.532
12662SOL    HW142833   5.219   2.679   3.527
12662SOL    HW242834   5.371   2.688   3.467
12663SOL     OW42835   4.737   1.967   3.632
12663SOL    HW142836   4.743   2.052   3.580
12663SOL    HW242837   4.769   1.891   3.575
12664SOL     OW42838   4.228   1.912   3.602
12664SOL    HW142839   4.186   1.855   3.532
12664SOL    HW242840   4.162   1.981   3.634
12665SOL     OW42841   4.297   2.732   2.891
12665SOL    HW142842   4.341   2.821   2.882
12665SOL    HW242843   4.234   2.732   2.968
12666SOL     OW42844   5.084   2.724   2.907
12666SOL    HW142845   5.009   2.724   2.841
12666SOL    HW242846   5.121   2.632   2.916
12667SOL     OW42847   4.933   2.387   2.137
12667SOL    HW142848   4.946   2.303   2.191
12667SOL    HW242849   4.904   2.461   2.197
12668SOL     OW42850   4.031   2.075   3.093
12668SOL    HW142851   4.008   2.112   3.183
12668SOL    HW242852   4.001   1.980   3.087
12669SOL     OW42853   3.761   3.172   3.144
12669SOL    HW142854   3.814   3.123   3.212
12669SOL    HW242855   3.783   3.270   3.149
12670SOL     OW42856   4.456   2.496   2.926
12670SOL    HW142857   4.515   2.470   2.850
12670SOL    HW242858   4.428   2.592   2.915
12671SOL     OW42859   5.452   2.797   3.716
12671SOL    HW142860   5.406   2.790   3.627
12671SOL    HW242861   5.390   2.841   3.782
12672SOL     OW42862   4.031   1.925   2.480
12672SOL    HW142863   4.020   2.019   2.513
12672SOL    HW242864   4.026   1.862   2.557
12673SOL     OW42865   5.346   2.229   2.236
12673SOL    HW142866   5.348   2.153   2.300
12673SOL    HW242867   5.298   2.306   2.276
12674SOL     OW42868   4.747   2.628   2.828
12674SOL    HW142869   4.762   2.649   2.924
12674SOL    HW242870   4.717   2.533   2.819
12675SOL     OW42871   4.704   3.435   3.562
12675SOL    HW142872   4.684   3.479   3.474
12675SOL    HW242873   4.743   3.344   3.546
12676SOL     OW42874   5.583   3.380   3.467
12676SOL    HW142875   5.597   3.407   3.372
12676SOL    HW242876   5.666   3.402   3.520
12677SOL     OW42877   4.074   2.760   3.666
12677SOL    HW142878   4.150   2.804   3.714
12677SOL    HW242879   4.109   2.713   3.584
12678SOL     OW42880   5.264   2.136   1.987
12678SOL    HW142881   5.203   2.061   2.010
12678SOL    HW242882   5.286   2.188   2.070
12679SOL     OW42883   5.027   2.700   1.904
12679SOL    HW142884   5.061   2.607   1.919
12679SOL    HW242885   5.045   2.727   1.809
12680SOL     OW42886   4.792   3.195   2.711
12680SOL    HW142887   4.799   3.111   2.656
12680SOL    HW242888   4.854   3.264   2.675
12681SOL     OW42889   4.043   2.672   2.811
12681SOL    HW142890   4.136   2.708   2.816
12681SOL    HW242891   4.037   2.587   2.863
12682SOL     OW42892   4.063   2.371   2.868
12682SOL    HW142893   4.011   2.288   2.851
12682SOL    HW242894   4.140   2.376   2.804
12683SOL     OW42895   4.862   2.242   3.540
12683SOL    HW142896   4.817   2.305   3.604
12683SOL    HW242897   4.955   2.273   3.523
12684SOL     OW42898   4.884   2.069   3.339
12684SOL    HW142899   4.884   2.133   3.416
12684SOL    HW242900   4.912   2.117   3.256
12685SOL     OW42901   3.732   3.188   2.062
12685SOL    HW142902   3.639   3.209   2.031
12685SOL    HW242903   3.742   3.089   2.075
12686SOL     OW42904   3.812   3.663   2.789
12686SOL    HW142905   3.770   3.577   2.762
12686SOL    HW242906   3.906   3.666   2.755
12687SOL     OW42907   4.228   3.430   2.772
12687SOL    HW142908   4.294   3.504   2.781
12687SOL    HW242909   4.272   3.351   2.730
12688SOL     OW42910   4.726   2.658   3.100
12688SOL    HW142911   4.767   2.626   3.186
12688SOL    HW242912   4.630   2.631   3.097
12689SOL     OW42913   3.764   2.406   2.976
12689SOL    HW142914   3.849   2.373   2.935
12689SOL    HW242915   3.777   2.421   3.074
12690SOL     OW42916   3.913   2.382   3.584
12690SOL    HW142917   3.972   2.342   3.514
12690SOL    HW242918   3.855   2.453   3.543
12691SOL     OW42919   5.093   2.812   3.522
12691SOL    HW142920   5.132   2.901   3.542
12691SOL    HW242921   5.103   2.792   3.425
12692SOL     OW42922   4.539   2.434   2.187
12692SOL    HW142923   4.546   2.345   2.141
12692SOL    HW242924   4.445   2.468   2.179
12693SOL     OW42925   5.381   2.466   3.068
12693SOL    HW142926   5.343   2.397   3.130
12693SOL    HW242927   5.463   2.430   3.024
12694SOL     OW42928   3.976   3.426   3.606
12694SOL    HW142929   3.946   3.483   3.682
12694SOL    HW242930   3.969   3.329   3.632
12695SOL     OW42931   4.395   2.326   3.131
12695SOL    HW142932   4.361   2.237   3.101
12695SOL    HW242933   4.421   2.380   3.051
12696SOL     OW42934   4.654   3.540   3.327
12696SOL    HW142935   4.630   3.522   3.232
12696SOL    HW242936   4.684   3.634   3.337
12697SOL     OW42937   4.197   2.362   2.053
12697SOL    HW142938   4.258   2.442   2.057
12697SOL    HW242939   4.102   2.393   2.060
12698SOL     OW42940   3.883   2.999   3.328
12698SOL    HW142941   3.905   2.938   3.404
12698SOL    HW242942   3.893   2.950   3.242
12699SOL     OW42943   5.071   2.921   3.096
12699SOL    HW142944   5.095   2.858   3.022
12699SOL    HW242945   4.981   2.961   3.078
12700SOL     OW42946   5.026   2.717   2.171
12700SOL    HW142947   4.940   2.686   2.213
12700SOL    HW242948   5.022   2.703   2.072
12701SOL     OW42949   5.483   3.609   3.016
12701SOL    HW142950   5.544   3.639   2.943
12701SOL    HW242951   5.445   3.520   2.994
12702SOL     OW42952   4.976   3.593   2.990
12702SOL    HW142953   5.060   3.598   2.936
12702SOL    HW242954   4.953   3.497   3.008
12703SOL     OW42955   3.807   3.120   2.884
12703SOL    HW142956   3.802   3.119   2.984
12703SOL    HW242957   3.724   3.079   2.846
12704SOL     OW42958   4.412   3.524   3.578
12704SOL    HW142959   4.356   3.605   3.587
12704SOL    HW242960   4.464   3.528   3.492
12705SOL     OW42961   5.450   1.997   2.385
12705SOL    HW142962   5.523   1.980   2.318
12705SOL    HW242963   5.419   1.910   2.423
12706SOL     OW42964   5.112   3.435   2.339
12706SOL    HW142965   5.179   3.447   2.265
12706SOL    HW242966   5.072   3.524   2.362
12707SOL     OW42967   3.854   3.656   3.713
12707SOL    HW142968   3.813   3.582   3.766
12707SOL    HW242969   3.918   3.707   3.771
12708SOL     OW42970   5.004   2.789   2.534
12708SOL    HW142971   5.064   2.708   2.536
12708SOL    HW242972   5.044   2.858   2.474
12709SOL     OW42973   4.554   3.135   3.284
12709SOL    HW142974   4.549   3.168   3.379
12709SOL    HW242975   4.468   3.154   3.238
12710SOL     OW42976   4.396   3.478   2.016
12710SOL    HW142977   4.405   3.488   1.917
12710SOL    HW242978   4.356   3.389   2.037
12711SOL     OW42979   5.374   3.582   3.256
12711SOL    HW142980   5.427   3.592   3.172
12711SOL    HW242981   5.347   3.672   3.290
12712SOL     OW42982   5.565   2.037   2.825
12712SOL    HW142983   5.604   1.952   2.789
12712SOL    HW242984   5.467   2.039   2.806
12713SOL     OW42985   3.987   2.188   2.582
12713SOL    HW142986   3.908   2.239   2.548
12713SOL    HW242987   3.978   2.173   2.680
12714SOL     OW42988   4.918   3.474   1.893
12714SOL    HW142989   4.924   3.381   1.930
12714SOL    HW242990   4.859   3.474   1.813
12715SOL     OW42991   4.546   2.864   3.234
12715SOL    HW142992   4.586   2.863   3.142
12715SOL    HW242993   4.556   2.956   3.274
12716SOL     OW42994   4.640   2.772   2.153
12716SOL    HW142995   4.703   2.810   2.085
12716SOL    HW242996   4.680   2.689   2.192
12717SOL     OW42997   5.228   3.469   1.906
12717SOL    HW142998   5.136   3.506   1.913
12717SOL    HW242999   5.266   3.489   1.816
12718SOL     OW43000   4.096   3.150   3.352
12718SOL    HW143001   4.083   3.243   3.318
12718SOL    HW243002   4.012   3.098   3.339
12719SOL     OW43003   5.338   3.154   3.151
12719SOL    HW143004   5.398   3.157   3.231
12719SOL    HW243005   5.263   3.218   3.164
12720SOL     OW43006   4.763   2.960   2.558
12720SOL    HW143007   4.693   2.913   2.612
12720SOL    HW243008   4.822   2.892   2.515
12721SOL     OW43009   4.738   2.098   2.833
12721SOL    HW143010   4.730   2.062   2.740
12721SOL    HW243011   4.736   2.022   2.898
12722SOL     OW43012   4.314   3.349   2.353
12722SOL    HW143013   4.356   3.291   2.283
12722SOL    HW243014   4.270   3.428   2.309
12723SOL     OW43015   5.433   2.247   3.243
12723SOL    HW143016   5.506   2.316   3.247
12723SOL    HW243017   5.461   2.172   3.184
12724SOL     OW43018   3.979   3.210   2.152
12724SOL    HW143019   3.883   3.211   2.125
12724SOL    HW243020   3.991   3.263   2.236
12725SOL     OW43021   3.829   2.875   3.588
12725SOL    HW143022   3.752   2.842   3.642
12725SOL    HW243023   3.914   2.845   3.630
12726SOL     OW43024   4.396   2.065   3.351
12726SOL    HW143025   4.486   2.049   3.311
12726SOL    HW243026   4.404   2.070   3.450
12727SOL     OW43027   3.799   2.207   1.895
12727SOL    HW143028   3.707   2.179   1.866
12727SOL    HW243029   3.830   2.284   1.839
12728SOL     OW43030   5.164   2.718   3.260
12728SOL    HW143031   5.107   2.770   3.197
12728SOL    HW243032   5.260   2.730   3.236
12729SOL     OW43033   3.796   2.028   2.180
12729SOL    HW143034   3.779   2.111   2.126
12729SOL    HW243035   3.886   1.991   2.158
12730SOL     OW43036   4.907   3.197   1.981
12730SOL    HW143037   4.808   3.186   1.983
12730SOL    HW243038   4.941   3.212   2.074
12731SOL     OW43039   4.337   2.704   3.293
12731SOL    HW143040   4.393   2.785   3.276
12731SOL    HW243041   4.396   2.624   3.296
12732SOL     OW43042   5.217   3.629   2.821
12732SOL    HW143043   5.250   3.693   2.752
12732SOL    HW243044   5.283   3.623   2.896
12733SOL     OW43045   4.440   2.427   3.570
12733SOL    HW143046   4.459   2.492   3.644
12733SOL    HW243047   4.500   2.347   3.579
12734SOL     OW43048   5.174   3.082   3.495
12734SOL    HW143049   5.165   3.072   3.594
12734SOL    HW243050   5.270   3.075   3.469
12735SOL     OW43051   4.114   3.603   3.422
12735SOL    HW143052   4.023   3.644   3.420
12735SOL    HW243053   4.107   3.509   3.454
12736SOL     OW43054   5.398   2.745   3.116
12736SOL    HW143055   5.371   2.656   3.079
12736SOL    HW243056   5.399   2.813   3.043
12737SOL     OW43057   4.949   2.187   2.311
12737SOL    HW143058   5.014   2.113   2.300
12737SOL    HW243059   4.969   2.237   2.395
12738SOL     OW43060   4.318   2.607   2.514
12738SOL    HW143061   4.368   2.692   2.495
12738SOL    HW243062   4.230   2.609   2.466
12739SOL     OW43063   5.501   2.204   3.504
12739SOL    HW143064   5.484   2.235   3.410
12739SOL    HW243065   5.417   2.167   3.542
12740SOL     OW43066   5.454   2.796   3.379
12740SOL    HW143067   5.492   2.887   3.394
12740SOL    HW243068   5.446   2.779   3.280
12741SOL     OW43069   4.583   3.236   1.878
12741SOL    HW143070   4.537   3.251   1.966
12741SOL    HW243071   4.627   3.321   1.848
12742SOL     OW43072   4.385   3.652   2.815
12742SOL    HW143073   4.339   3.740   2.802
12742SOL    HW243074   4.484   3.664   2.808
12743SOL     OW43075   4.583   2.818   2.723
12743SOL    HW143076   4.637   2.749   2.771
12743SOL    HW243077   4.551   2.887   2.789
12744SOL     OW43078   4.807   2.846   1.949
12744SOL    HW143079   4.784   2.899   1.867
12744SOL    HW243080   4.888   2.790   1.930
12745SOL     OW43081   5.585   3.431   2.713
12745SOL    HW143082   5.514   3.419   2.643
12745SOL    HW243083   5.586   3.352   2.773
12746SOL     OW43084   3.945   3.176   3.706
12746SOL    HW143085   3.880   3.103   3.685
12746SOL    HW243086   3.949   3.190   3.804
12747SOL     OW43087   3.803   3.102   2.515
12747SOL    HW143088   3.802   3.055   2.603
12747SOL    HW243089   3.885   3.074   2.464
12748SOL     OW43090   4.396   3.253   3.486
12748SOL    HW143091   4.318   3.203   3.524
12748SOL    HW243092   4.393   3.348   3.517
12749SOL     OW43093   4.152   2.286   2.382
12749SOL    HW143094   4.182   2.214   2.320
12749SOL    HW243095   4.113   2.246   2.465
12750SOL     OW43096   5.429   3.349   2.966
12750SOL    HW143097   5.336   3.324   2.939
12750SOL    HW243098   5.455   3.299   3.048
12751SOL     OW43099   4.041   2.409   3.142
12751SOL    HW143100   4.079   2.350   3.214
12751SOL    HW243101   4.081   2.383   3.054
12752SOL     OW43102   5.148   2.076   2.974
12752SOL    HW143103   5.200   2.011   3.029
12752SOL    HW243104   5.099   2.139   3.035
12753SOL     OW43105   4.725   1.896   3.016
12753SOL    HW143106   4.662   1.824   2.985
12753SOL    HW243107   4.818   1.860   3.016
12754SOL     OW43108   4.494   3.192   2.163
12754SOL    HW143109   4.448   3.105   2.180
12754SOL    HW243110   4.585   3.189   2.204
12755SOL     OW43111   4.342   3.429   3.146
12755SOL    HW143112   4.337   3.511   3.203
12755SOL    HW243113   4.431   3.426   3.101
12756SOL     OW43114   5.076   1.914   2.030
12756SOL    HW143115   5.111   1.873   1.946
12756SOL    HW243116   4.986   1.876   2.050
12757SOL     OW43117   5.024   2.315   2.553
12757SOL    HW143118   4.965   2.395   2.557
12757SOL    HW243119   5.039   2.280   2.646
12758SOL     OW43120   5.317   2.083   2.744
12758SOL    HW143121   5.233   2.082   2.798
12758SOL    HW243122   5.319   2.166   2.688
12759SOL     OW43123   3.763   2.939   2.162
12759SOL    HW143124   3.862   2.928   2.153
12759SOL    HW243125   3.723   2.853   2.194
12760SOL     OW43126   4.599   3.508   2.199
12760SOL    HW143127   4.522   3.473   2.145
12760SOL    HW243128   4.567   3.579   2.261
12761SOL     OW43129   3.954   2.490   3.837
12761SOL    HW143130   3.861   2.488   3.874
12761SOL    HW243131   3.955   2.451   3.745
12762SOL     OW43132   3.949   2.137   4.720
12762SOL    HW143133   3.984   2.120   4.812
12762SOL    HW243134   3.861   2.092   4.708
12763SOL     OW43135   3.743   2.230   4.371
12763SOL    HW143136   3.661   2.273   4.410
12763SOL    HW243137   3.715   2.157   4.308
12764SOL     OW43138   4.293   3.137   4.889
12764SOL    HW143139   4.200   3.130   4.852
12764SOL    HW243140   4.304   3.226   4.933
12765SOL     OW43141   5.279   3.373   4.427
12765SOL    HW143142   5.222   3.357   4.508
12765SOL    HW243143   5.220   3.383   4.347
12766SOL     OW43144   4.859   2.565   4.441
12766SOL    HW143145   4.916   2.643   4.416
12766SOL    HW243146   4.799   2.591   4.517
12767SOL     OW43147   5.479   2.469   3.955
12767SOL    HW143148   5.467   2.456   3.856
12767SOL    HW243149   5.449   2.388   4.004
12768SOL     OW43150   4.492   3.006   4.747
12768SOL    HW143151   4.414   3.023   4.807
12768SOL    HW243152   4.526   3.093   4.711
12769SOL     OW43153   4.574   2.660   5.547
12769SOL    HW143154   4.570   2.736   5.612
12769SOL    HW243155   4.596   2.696   5.456
12770SOL     OW43156   4.409   2.874   4.389
12770SOL    HW143157   4.478   2.858   4.459
12770SOL    HW243158   4.336   2.931   4.427
12771SOL     OW43159   4.410   3.023   5.527
12771SOL    HW143160   4.470   3.102   5.541
12771SOL    HW243161   4.324   3.054   5.486
12772SOL     OW43162   4.059   3.297   4.785
12772SOL    HW143163   3.981   3.266   4.732
12772SOL    HW243164   4.117   3.355   4.728
12773SOL     OW43165   5.184   3.367   5.063
12773SOL    HW143166   5.208   3.461   5.089
12773SOL    HW243167   5.168   3.313   5.145
12774SOL     OW43168   4.162   2.254   5.223
12774SOL    HW143169   4.244   2.198   5.232
12774SOL    HW243170   4.081   2.196   5.227
12775SOL     OW43171   5.327   2.309   4.461
12775SOL    HW143172   5.253   2.355   4.411
12775SOL    HW243173   5.378   2.377   4.514
12776SOL     OW43174   3.955   3.575   4.207
12776SOL    HW143175   3.989   3.652   4.261
12776SOL    HW243176   3.999   3.575   4.117
12777SOL     OW43177   4.851   3.203   5.414
12777SOL    HW143178   4.898   3.203   5.502
12777SOL    HW243179   4.803   3.116   5.403
12778SOL     OW43180   3.954   3.296   4.262
12778SOL    HW143181   3.928   3.392   4.262
12778SOL    HW243182   3.883   3.242   4.307
12779SOL     OW43183   3.964   2.953   4.610
12779SOL    HW143184   3.978   2.869   4.662
12779SOL    HW243185   3.909   3.017   4.665
12780SOL     OW43186   4.344   3.648   5.163
12780SOL    HW143187   4.252   3.631   5.198
12780SOL    HW243188   4.372   3.740   5.189
12781SOL     OW43189   4.330   2.826   3.847
12781SOL    HW143190   4.337   2.910   3.793
12781SOL    HW243191   4.376   2.839   3.935
12782SOL     OW43192   5.318   1.976   5.204
12782SOL    HW143193   5.300   2.043   5.132
12782SOL    HW243194   5.315   2.022   5.293
12783SOL     OW43195   3.846   2.505   4.287
12783SOL    HW143196   3.801   2.417   4.304
12783SOL    HW243197   3.845   2.559   4.371
12784SOL     OW43198   5.566   3.629   4.083
12784SOL    HW143199   5.620   3.600   4.163
12784SOL    HW243200   5.596   3.719   4.054
12785SOL     OW43201   3.751   3.458   3.841
12785SOL    HW143202   3.732   3.362   3.862
12785SOL    HW243203   3.718   3.516   3.916
12786SOL     OW43204   5.413   2.784   4.336
12786SOL    HW143205   5.508   2.755   4.344
12786SOL    HW243206   5.405   2.849   4.261
12787SOL     OW43207   5.365   2.970   4.156
12787SOL    HW143208   5.451   2.972   4.104
12787SOL    HW243209   5.379   3.017   4.244
12788SOL     OW43210   3.837   2.599   5.321
12788SOL    HW143211   3.925   2.586   5.366
12788SOL    HW243212   3.824   2.696   5.299
12789SOL     OW43213   4.337   3.227   4.450
12789SOL    HW143214   4.288   3.140   4.459
12789SOL    HW243215   4.314   3.270   4.363
12790SOL     OW43216   5.017   3.090   5.147
12790SOL    HW143217   5.054   3.017   5.089
12790SOL    HW243218   5.069   3.095   5.232
12791SOL     OW43219   4.533   1.866   4.226
12791SOL    HW143220   4.573   1.957   4.217
12791SOL    HW243221   4.433   1.874   4.232
12792SOL     OW43222   3.921   2.838   4.988
12792SOL    HW143223   4.010   2.793   4.974
12792SOL    HW243224   3.848   2.773   4.969
12793SOL     OW43225   5.249   2.861   3.914
12793SOL    HW143226   5.186   2.785   3.927
12793SOL    HW243227   5.297   2.879   4.000
12794SOL     OW43228   4.911   3.654   5.340
12794SOL    HW143229   4.935   3.714   5.264
12794SOL    HW243230   4.918   3.559   5.310
12795SOL     OW43231   4.041   2.113   5.525
12795SOL    HW143232   4.112   2.184   5.531
12795SOL    HW243233   3.953   2.152   5.553
12796SOL     OW43234   5.190   3.279   4.677
12796SOL    HW143235   5.131   3.285   4.757
12796SOL    HW243236   5.175   3.191   4.631
12797SOL     OW43237   5.391   3.576   4.296
12797SOL    HW143238   5.350   3.553   4.208
12797SOL    HW243239   5.373   3.502   4.361
12798SOL     OW43240   4.322   2.591   3.994
12798SOL    HW143241   4.346   2.660   3.926
12798SOL    HW243242   4.244   2.624   4.048
12799SOL     OW43243   5.005   2.207   4.668
12799SOL    HW143244   4.919   2.157   4.655
12799SOL    HW243245   5.067   2.153   4.724
12800SOL     OW43246   5.300   3.524   4.031
12800SOL    HW143247   5.389   3.570   4.034
12800SOL    HW243248   5.279   3.500   3.936
12801SOL     OW43249   4.531   2.467   5.189
12801SOL    HW143250   4.484   2.464   5.278
12801SOL    HW243251   4.480   2.412   5.123
12802SOL     OW43252   5.118   2.331   5.398
12802SOL    HW143253   5.098   2.374   5.486
12802SOL    HW243254   5.196   2.269   5.407
12803SOL     OW43255   4.697   2.752   5.296
12803SOL    HW143256   4.743   2.668   5.267
12803SOL    HW243257   4.641   2.786   5.221
12804SOL     OW43258   4.715   2.272   4.966
12804SOL    HW143259   4.638   2.306   5.020
12804SOL    HW243260   4.681   2.221   4.887
12805SOL     OW43261   4.765   2.563   4.153
12805SOL    HW143262   4.791   2.559   4.249
12805SOL    HW243263   4.680   2.512   4.139
12806SOL     OW43264   3.800   2.673   4.513
12806SOL    HW143265   3.899   2.661   4.522
12806SOL    HW243266   3.776   2.768   4.534
12807SOL     OW43267   3.854   3.683   5.295
12807SOL    HW143268   3.844   3.668   5.394
12807SOL    HW243269   3.768   3.719   5.259
12808SOL     OW43270   4.589   2.210   3.919
12808SOL    HW143271   4.648   2.273   3.870
12808SOL    HW243272   4.608   2.116   3.890
12809SOL     OW43273   5.443   2.447   5.555
12809SOL    HW143274   5.417   2.536   5.519
12809SOL    HW243275   5.441   2.379   5.482
12810SOL     OW43276   5.086   3.006   4.269
12810SOL    HW143277   5.169   2.977   4.221
12810SOL    HW243278   5.037   3.073   4.213
12811SOL     OW43279   4.274   2.058   4.609
12811SOL    HW143280   4.269   2.053   4.709
12811SOL    HW243281   4.276   2.154   4.580
12812SOL     OW43282   4.732   3.318   4.201
12812SOL    HW143283   4.686   3.390   4.149
12812SOL    HW243284   4.728   3.338   4.299
12813SOL     OW43285   4.075   3.663   4.577
12813SOL    HW143286   4.125   3.577   4.583
12813SOL    HW243287   4.140   3.740   4.574
12814SOL     OW43288   5.519   2.928   4.597
12814SOL    HW143289   5.457   2.913   4.521
12814SOL    HW243290   5.467   2.939   4.682
12815SOL     OW43291   4.951   3.412   5.230
12815SOL    HW143292   4.957   3.335   5.294
12815SOL    HW243293   4.899   3.386   5.150
12816SOL     OW43294   4.045   2.805   3.966
12816SOL    HW143295   4.127   2.844   3.924
12816SOL    HW243296   4.018   2.723   3.917
12817SOL     OW43297   5.182   2.597   4.452
12817SOL    HW143298   5.177   2.532   4.527
12817SOL    HW243299   5.262   2.656   4.465
12818SOL     OW43300   4.185   3.128   5.451
12818SOL    HW143301   4.135   3.129   5.365
12818SOL    HW243302   4.122   3.110   5.527
12819SOL     OW43303   4.835   3.638   3.961
12819SOL    HW143304   4.775   3.576   4.011
12819SOL    HW243305   4.866   3.594   3.876
12820SOL     OW43306   3.926   2.147   5.222
12820SOL    HW143307   3.846   2.207   5.209
12820SOL    HW243308   3.916   2.098   5.308
12821SOL     OW43309   5.356   3.239   3.805
12821SOL    HW143310   5.324   3.333   3.795
12821SOL    HW243311   5.280   3.176   3.793
12822SOL     OW43312   4.188   3.605   4.047
12822SOL    HW143313   4.221   3.644   4.133
12822SOL    HW243314   4.264   3.598   3.982
12823SOL     OW43315   5.124   1.969   4.150
12823SOL    HW143316   5.100   1.932   4.060
12823SOL    HW243317   5.223   1.985   4.154
12824SOL     OW43318   3.973   3.647   4.965
12824SOL    HW143319   4.030   3.582   5.015
12824SOL    HW243320   3.957   3.614   4.872
12825SOL     OW43321   4.664   3.560   4.628
12825SOL    HW143322   4.744   3.503   4.649
12825SOL    HW243323   4.615   3.520   4.551
12826SOL     OW43324   4.106   2.562   4.204
12826SOL    HW143325   4.151   2.472   4.201
12826SOL    HW243326   4.012   2.551   4.237
12827SOL     OW43327   5.271   2.084   5.453
12827SOL    HW143328   5.266   2.121   5.545
12827SOL    HW243329   5.199   2.015   5.441
12828SOL     OW43330   4.338   1.984   3.841
12828SOL    HW143331   4.436   1.962   3.848
12828SOL    HW243332   4.307   1.967   3.748
12829SOL     OW43333   4.505   2.126   5.473
12829SOL    HW143334   4.572   2.065   5.516
12829SOL    HW243335   4.432   2.145   5.538
12830SOL     OW43336   4.612   3.376   4.919
12830SOL    HW143337   4.589   3.351   4.825
12830SOL    HW243338   4.673   3.307   4.958
12831SOL     OW43339   5.075   2.452   5.157
12831SOL    HW143340   5.103   2.409   5.242
12831SOL    HW243341   5.100   2.548   5.158
12832SOL     OW43342   4.527   3.264   4.648
12832SOL    HW143343   4.617   3.278   4.606
12832SOL    HW243344   4.456   3.266   4.577
12833SOL     OW43345   4.646   2.365   4.623
12833SOL    HW143346   4.621   2.356   4.527
12833SOL    HW243347   4.694   2.283   4.654
12834SOL     OW43348   4.263   1.926   4.236
12834SOL    HW143349   4.182   1.927   4.294
12834SOL    HW243350   4.266   2.009   4.181
12835SOL     OW43351   4.021   1.897   3.895
12835SOL    HW143352   4.070   1.981   3.874
12835SOL    HW243353   4.083   1.832   3.940
12836SOL     OW43354   4.659   2.098   4.204
12836SOL    HW143355   4.611   2.139   4.126
12836SOL    HW243356   4.758   2.096   4.185
12837SOL     OW43357   4.800   2.545   5.188
12837SOL    HW143358   4.720   2.484   5.191
12837SOL    HW243359   4.881   2.492   5.164
12838SOL     OW43360   4.951   3.432   4.517
12838SOL    HW143361   4.972   3.506   4.452
12838SOL    HW243362   5.019   3.432   4.590
12839SOL     OW43363   4.183   3.014   4.465
12839SOL    HW143364   4.112   2.987   4.530
12839SOL    HW243365   4.157   2.986   4.372
12840SOL     OW43366   4.995   3.659   4.315
12840SOL    HW143367   5.039   3.723   4.251
12840SOL    HW243368   4.945   3.711   4.385
12841SOL     OW43369   4.756   2.411   3.740
12841SOL    HW143370   4.715   2.493   3.701
12841SOL    HW243371   4.820   2.437   3.813
12842SOL     OW43372   3.802   2.418   5.110
12842SOL    HW143373   3.894   2.417   5.069
12842SOL    HW243374   3.796   2.492   5.177
12843SOL     OW43375   4.285   2.084   4.871
12843SOL    HW143376   4.323   2.000   4.908
12843SOL    HW243377   4.197   2.103   4.915
12844SOL     OW43378   4.741   1.901   4.477
12844SOL    HW143379   4.669   1.906   4.408
12844SOL    HW243380   4.717   1.832   4.546
12845SOL     OW43381   5.153   3.035   4.591
12845SOL    HW143382   5.098   2.951   4.584
12845SOL    HW243383   5.179   3.064   4.499
12846SOL     OW43384   5.190   2.452   4.716
12846SOL    HW143385   5.160   2.357   4.723
12846SOL    HW243386   5.263   2.468   4.782
12847SOL     OW43387   5.581   2.695   4.101
12847SOL    HW143388   5.623   2.631   4.165
12847SOL    HW243389   5.543   2.644   4.023
12848SOL     OW43390   4.212   3.247   3.898
12848SOL    HW143391   4.125   3.232   3.945
12848SOL    HW243392   4.195   3.273   3.803
12849SOL     OW43393   5.388   3.142   4.381
12849SOL    HW143394   5.487   3.150   4.395
12849SOL    HW243395   5.343   3.226   4.412
12850SOL     OW43396   5.114   2.437   3.802
12850SOL    HW143397   5.060   2.416   3.883
12850SOL    HW243398   5.205   2.396   3.811
12851SOL     OW43399   4.251   2.118   4.052
12851SOL    HW143400   4.278   2.059   3.977
12851SOL    HW243401   4.251   2.213   4.021
12852SOL     OW43402   5.478   3.085   5.312
12852SOL    HW143403   5.569   3.046   5.299
12852SOL    HW243404   5.486   3.181   5.336
12853SOL     OW43405   4.788   3.209   5.064
12853SOL    HW143406   4.708   3.186   5.119
12853SOL    HW243407   4.871   3.183   5.113
12854SOL     OW43408   5.316   3.491   5.349
12854SOL    HW143409   5.343   3.525   5.259
12854SOL    HW243410   5.395   3.453   5.395
12855SOL     OW43411   4.835   3.057   4.824
12855SOL    HW143412   4.795   3.101   4.905
12855SOL    HW243413   4.794   3.094   4.741
12856SOL     OW43414   5.362   2.961   4.803
12856SOL    HW143415   5.367   3.042   4.862
12856SOL    HW243416   5.276   2.963   4.752
12857SOL     OW43417   4.639   1.951   5.126
12857SOL    HW143418   4.664   1.931   5.031
12857SOL    HW243419   4.711   2.007   5.168
12858SOL     OW43420   4.704   2.978   5.443
12858SOL    HW143421   4.605   2.984   5.453
12858SOL    HW243422   4.727   2.898   5.387
12859SOL     OW43423   4.429   2.912   4.092
12859SOL    HW143424   4.415   2.919   4.191
12859SOL    HW243425   4.513   2.861   4.074
12860SOL     OW43426   4.134   2.675   4.975
12860SOL    HW143427   4.220   2.687   5.025
12860SOL    HW243428   4.092   2.588   5.002
12861SOL     OW43429   3.788   3.426   5.055
12861SOL    HW143430   3.742   3.508   5.021
12861SOL    HW243431   3.886   3.445   5.064
12862SOL     OW43432   4.091   2.962   4.225
12862SOL    HW143433   4.084   3.045   4.169
12862SOL    HW243434   4.095   2.882   4.165
12863SOL     OW43435   4.290   2.399   4.589
12863SOL    HW143436   4.302   2.465   4.515
12863SOL    HW243437   4.336   2.433   4.672
12864SOL     OW43438   4.976   3.210   4.112
12864SOL    HW143439   5.026   3.287   4.152
12864SOL    HW243440   4.881   3.212   4.144
12865SOL     OW43441   4.996   3.307   4.866
12865SOL    HW143442   5.043   3.320   4.953
12865SOL    HW243443   4.930   3.233   4.875
12866SOL     OW43444   5.306   2.501   4.196
12866SOL    HW143445   5.275   2.562   4.269
12866SOL    HW243446   5.356   2.553   4.127
12867SOL     OW43447   4.078   3.372   5.053
12867SOL    HW143448   4.057   3.328   4.966
12867SOL    HW243449   4.175   3.398   5.056
12868SOL     OW43450   4.126   2.613   5.322
12868SOL    HW143451   4.194   2.668   5.275
12868SOL    HW243452   4.166   2.525   5.349
12869SOL     OW43453   4.737   1.967   5.494
12869SOL    HW143454   4.743   2.052   5.442
12869SOL    HW243455   4.769   1.891   5.437
12870SOL     OW43456   4.228   1.912   5.464
12870SOL    HW143457   4.186   1.855   5.394
12870SOL    HW243458   4.162   1.981   5.496
12871SOL     OW43459   4.297   2.732   4.753
12871SOL    HW143460   4.341   2.821   4.744
12871SOL    HW243461   4.234   2.732   4.830
12872SOL     OW43462   5.084   2.724   4.769
12872SOL    HW143463   5.009   2.724   4.703
12872SOL    HW243464   5.121   2.632   4.778
12873SOL     OW43465   4.933   2.387   3.999
12873SOL    HW143466   4.946   2.303   4.053
12873SOL    HW243467   4.904   2.461   4.059
12874SOL     OW43468   4.031   2.075   4.955
12874SOL    HW143469   4.008   2.112   5.045
12874SOL    HW243470   4.001   1.980   4.949
12875SOL     OW43471   3.761   3.172   5.006
12875SOL    HW143472   3.814   3.123   5.074
12875SOL    HW243473   3.783   3.270   5.011
12876SOL     OW43474   4.456   2.496   4.788
12876SOL    HW143475   4.515   2.470   4.712
12876SOL    HW243476   4.428   2.592   4.777
12877SOL     OW43477   5.452   2.797   5.578
12877SOL    HW143478   5.406   2.790   5.489
12877SOL    HW243479   5.390   2.841   5.644
12878SOL     OW43480   4.031   1.925   4.342
12878SOL    HW143481   4.020   2.019   4.375
12878SOL    HW243482   4.026   1.862   4.419
12879SOL     OW43483   5.346   2.229   4.098
12879SOL    HW143484   5.348   2.153   4.162
12879SOL    HW243485   5.298   2.306   4.138
12880SOL     OW43486   4.747   2.628   4.690
12880SOL    HW143487   4.762   2.649   4.786
12880SOL    HW243488   4.717   2.533   4.681
12881SOL     OW43489   4.704   3.435   5.424
12881SOL    HW143490   4.684   3.479   5.336
12881SOL    HW243491   4.743   3.344   5.408
12882SOL     OW43492   5.583   3.380   5.329
12882SOL    HW143493   5.597   3.407   5.234
12882SOL    HW243494   5.666   3.402   5.382
12883SOL     OW43495   4.074   2.760   5.528
12883SOL    HW143496   4.150   2.804   5.576
12883SOL    HW243497   4.109   2.713   5.446
12884SOL     OW43498   5.264   2.136   3.849
12884SOL    HW143499   5.203   2.061   3.872
12884SOL    HW243500   5.286   2.188   3.932
12885SOL     OW43501   5.027   2.700   3.766
12885SOL    HW143502   5.061   2.607   3.781
12885SOL    HW243503   5.045   2.727   3.671
12886SOL     OW43504   4.792   3.195   4.573
12886SOL    HW143505   4.799   3.111   4.518
12886SOL    HW243506   4.854   3.264   4.537
12887SOL     OW43507   4.043   2.672   4.673
12887SOL    HW143508   4.136   2.708   4.678
12887SOL    HW243509   4.037   2.587   4.725
12888SOL     OW43510   4.063   2.371   4.730
12888SOL    HW143511   4.011   2.288   4.713
12888SOL    HW243512   4.140   2.376   4.666
12889SOL     OW43513   4.862   2.242   5.402
12889SOL    HW143514   4.817   2.305   5.466
12889SOL    HW243515   4.955   2.273   5.385
12890SOL     OW43516   4.884   2.069   5.201
12890SOL    HW143517   4.884   2.133   5.278
12890SOL    HW243518   4.912   2.117   5.118
12891SOL     OW43519   3.732   3.188   3.924
12891SOL    HW143520   3.639   3.209   3.893
12891SOL    HW243521   3.742   3.089   3.937
12892SOL     OW43522   3.812   3.663   4.651
12892SOL    HW143523   3.770   3.577   4.624
12892SOL    HW243524   3.906   3.666   4.617
12893SOL     OW43525   4.228   3.430   4.634
12893SOL    HW143526   4.294   3.504   4.643
12893SOL    HW243527   4.272   3.351   4.592
12894SOL     OW43528   4.726   2.658   4.962
12894SOL    HW143529   4.767   2.626   5.048
12894SOL    HW243530   4.630   2.631   4.959
12895SOL     OW43531   3.913   2.382   5.446
12895SOL    HW143532   3.972   2.342   5.376
12895SOL    HW243533   3.855   2.453   5.405
12896SOL     OW43534   5.093   2.812   5.384
12896SOL    HW143535   5.132   2.901   5.404
12896SOL    HW243536   5.103   2.792   5.287
12897SOL     OW43537   4.539   2.434   4.049
12897SOL    HW143538   4.546   2.345   4.003
12897SOL    HW243539   4.445   2.468   4.041
12898SOL     OW43540   5.381   2.466   4.930
12898SOL    HW143541   5.343   2.397   4.992
12898SOL    HW243542   5.463   2.430   4.886
12899SOL     OW43543   3.976   3.426   5.468
12899SOL    HW143544   3.946   3.483   5.544
12899SOL    HW243545   3.969   3.329   5.494
12900SOL     OW43546   4.395   2.326   4.993
12900SOL    HW143547   4.361   2.237   4.963
12900SOL    HW243548   4.421   2.380   4.913
12901SOL     OW43549   4.654   3.540   5.189
12901SOL    HW143550   4.630   3.522   5.094
12901SOL    HW243551   4.684   3.634   5.199
12902SOL     OW43552   4.197   2.362   3.915
12902SOL    HW143553   4.258   2.442   3.919
12902SOL    HW243554   4.102   2.393   3.922
12903SOL     OW43555   3.883   2.999   5.190
12903SOL    HW143556   3.905   2.938   5.266
12903SOL    HW243557   3.893   2.950   5.104
12904SOL     OW43558   5.071   2.921   4.958
12904SOL    HW143559   5.095   2.858   4.884
12904SOL    HW243560   4.981   2.961   4.940
12905SOL     OW43561   5.026   2.717   4.033
12905SOL    HW143562   4.940   2.686   4.075
12905SOL    HW243563   5.022   2.703   3.934
12906SOL     OW43564   5.483   3.609   4.878
12906SOL    HW143565   5.544   3.639   4.805
12906SOL    HW243566   5.445   3.520   4.856
12907SOL     OW43567   4.976   3.593   4.852
12907SOL    HW143568   5.060   3.598   4.798
12907SOL    HW243569   4.953   3.497   4.870
12908SOL     OW43570   3.807   3.120   4.746
12908SOL    HW143571   3.802   3.119   4.846
12908SOL    HW243572   3.724   3.079   4.708
12909SOL     OW43573   4.412   3.524   5.440
12909SOL    HW143574   4.356   3.605   5.449
12909SOL    HW243575   4.464   3.528   5.354
12910SOL     OW43576   5.450   1.997   4.247
12910SOL    HW143577   5.523   1.980   4.180
12910SOL    HW243578   5.419   1.910   4.285
12911SOL     OW43579   5.112   3.435   4.201
12911SOL    HW143580   5.179   3.447   4.127
12911SOL    HW243581   5.072   3.524   4.224
12912SOL     OW43582   3.854   3.656   5.575
12912SOL    HW143583   3.813   3.582   5.628
12912SOL    HW243584   3.918   3.707   5.633
12913SOL     OW43585   5.004   2.789   4.396
12913SOL    HW143586   5.064   2.708   4.398
12913SOL    HW243587   5.044   2.858   4.336
12914SOL     OW43588   4.554   3.135   5.146
12914SOL    HW143589   4.549   3.168   5.241
12914SOL    HW243590   4.468   3.154   5.100
12915SOL     OW43591   4.396   3.478   3.878
12915SOL    HW143592   4.405   3.488   3.779
12915SOL    HW243593   4.356   3.389   3.899
12916SOL     OW43594   5.374   3.582   5.118
12916SOL    HW143595   5.427   3.592   5.034
12916SOL    HW243596   5.347   3.672   5.152
12917SOL     OW43597   5.565   2.037   4.687
12917SOL    HW143598   5.604   1.952   4.651
12917SOL    HW243599   5.467   2.039   4.668
12918SOL     OW43600   3.987   2.188   4.444
12918SOL    HW143601   3.908   2.239   4.410
12918SOL    HW243602   3.978   2.173   4.542
12919SOL     OW43603   4.918   3.474   3.755
12919SOL    HW143604   4.924   3.381   3.792
12919SOL    HW243605   4.859   3.474   3.675
12920SOL     OW43606   4.546   2.864   5.096
12920SOL    HW143607   4.586   2.863   5.004
12920SOL    HW243608   4.556   2.956   5.136
12921SOL     OW43609   4.640   2.772   4.015
12921SOL    HW143610   4.703   2.810   3.947
12921SOL    HW243611   4.680   2.689   4.054
12922SOL     OW43612   5.228   3.469   3.768
12922SOL    HW143613   5.136   3.506   3.775
12922SOL    HW243614   5.266   3.489   3.678
12923SOL     OW43615   4.096   3.150   5.214
12923SOL    HW143616   4.083   3.243   5.180
12923SOL    HW243617   4.012   3.098   5.201
12924SOL     OW43618   5.338   3.154   5.013
12924SOL    HW143619   5.398   3.157   5.093
12924SOL    HW243620   5.263   3.218   5.026
12925SOL     OW43621   4.763   2.960   4.420
12925SOL    HW143622   4.693   2.913   4.474
12925SOL    HW243623   4.822   2.892   4.377
12926SOL     OW43624   4.738   2.098   4.695
12926SOL    HW143625   4.730   2.062   4.602
12926SOL    HW243626   4.736   2.022   4.760
12927SOL     OW43627   4.314   3.349   4.215
12927SOL    HW143628   4.356   3.291   4.145
12927SOL    HW243629   4.270   3.428   4.171
12928SOL     OW43630   5.433   2.247   5.105
12928SOL    HW143631   5.506   2.316   5.109
12928SOL    HW243632   5.461   2.172   5.046
12929SOL     OW43633   3.979   3.210   4.014
12929SOL    HW143634   3.883   3.211   3.987
12929SOL    HW243635   3.991   3.263   4.098
12930SOL     OW43636   3.829   2.875   5.450
12930SOL    HW143637   3.752   2.842   5.504
12930SOL    HW243638   3.914   2.845   5.492
12931SOL     OW43639   4.396   2.065   5.213
12931SOL    HW143640   4.486   2.049   5.173
12931SOL    HW243641   4.404   2.070   5.312
12932SOL     OW43642   3.799   2.207   3.757
12932SOL    HW143643   3.707   2.179   3.728
12932SOL    HW243644   3.830   2.284   3.701
12933SOL     OW43645   5.164   2.718   5.122
12933SOL    HW143646   5.107   2.770   5.059
12933SOL    HW243647   5.260   2.730   5.098
12934SOL     OW43648   3.796   2.028   4.042
12934SOL    HW143649   3.779   2.111   3.988
12934SOL    HW243650   3.886   1.991   4.020
12935SOL     OW43651   4.907   3.197   3.843
12935SOL    HW143652   4.808   3.186   3.845
12935SOL    HW243653   4.941   3.212   3.936
12936SOL     OW43654   4.337   2.704   5.155
12936SOL    HW143655   4.393   2.785   5.138
12936SOL    HW243656   4.396   2.624   5.158
12937SOL     OW43657   5.217   3.629   4.683
12937SOL    HW143658   5.250   3.693   4.614
12937SOL    HW243659   5.283   3.623   4.758
12938SOL     OW43660   4.440   2.427   5.432
12938SOL    HW143661   4.459   2.492   5.506
12938SOL    HW243662   4.500   2.347   5.441
12939SOL     OW43663   5.174   3.082   5.357
12939SOL    HW143664   5.165   3.072   5.456
12939SOL    HW243665   5.270   3.075   5.331
12940SOL     OW43666   4.114   3.603   5.284
12940SOL    HW143667   4.023   3.644   5.282
12940SOL    HW243668   4.107   3.509   5.316
12941SOL     OW43669   5.398   2.745   4.978
12941SOL    HW143670   5.371   2.656   4.941
12941SOL    HW243671   5.399   2.813   4.905
12942SOL     OW43672   4.949   2.187   4.173
12942SOL    HW143673   5.014   2.113   4.162
12942SOL    HW243674   4.969   2.237   4.257
12943SOL     OW43675   4.318   2.607   4.376
12943SOL    HW143676   4.368   2.692   4.357
12943SOL    HW243677   4.230   2.609   4.328
12944SOL     OW43678   5.501   2.204   5.366
12944SOL    HW143679   5.484   2.235   5.272
12944SOL    HW243680   5.417   2.167   5.404
12945SOL     OW43681   5.454   2.796   5.241
12945SOL    HW143682   5.492   2.887   5.256
12945SOL    HW243683   5.446   2.779   5.142
12946SOL     OW43684   4.583   3.236   3.740
12946SOL    HW143685   4.537   3.251   3.828
12946SOL    HW243686   4.627   3.321   3.710
12947SOL     OW43687   4.385   3.652   4.677
12947SOL    HW143688   4.339   3.740   4.664
12947SOL    HW243689   4.484   3.664   4.670
12948SOL     OW43690   4.583   2.818   4.585
12948SOL    HW143691   4.637   2.749   4.633
12948SOL    HW243692   4.551   2.887   4.651
12949SOL     OW43693   4.807   2.846   3.811
12949SOL    HW143694   4.784   2.899   3.729
12949SOL    HW243695   4.888   2.790   3.792
12950SOL     OW43696   5.585   3.431   4.575
12950SOL    HW143697   5.514   3.419   4.505
12950SOL    HW243698   5.586   3.352   4.635
12951SOL     OW43699   3.945   3.176   5.568
12951SOL    HW143700   3.880   3.103   5.547
12951SOL    HW243701   3.949   3.190   5.666
12952SOL     OW43702   3.803   3.102   4.377
12952SOL    HW143703   3.802   3.055   4.465
12952SOL    HW243704   3.885   3.074   4.326
12953SOL     OW43705   4.396   3.253   5.348
12953SOL    HW143706   4.318   3.203   5.386
12953SOL    HW243707   4.393   3.348   5.379
12954SOL     OW43708   5.548   2.054   4.951
12954SOL    HW143709   5.544   1.964   4.995
12954SOL    HW243710   5.551   2.043   4.852
12955SOL     OW43711   4.152   2.286   4.244
12955SOL    HW143712   4.182   2.214   4.182
12955SOL    HW243713   4.113   2.246   4.327
12956SOL     OW43714   5.429   3.349   4.828
12956SOL    HW143715   5.336   3.324   4.801
12956SOL    HW243716   5.455   3.299   4.910
12957SOL     OW43717   4.041   2.409   5.004
12957SOL    HW143718   4.079   2.350   5.076
12957SOL    HW243719   4.081   2.383   4.916
12958SOL     OW43720   4.536   3.448   4.411
12958SOL    HW143721   4.568   3.458   4.317
12958SOL    HW243722   4.457   3.386   4.413
12959SOL     OW43723   5.148   2.076   4.836
12959SOL    HW143724   5.200   2.011   4.891
12959SOL    HW243725   5.099   2.139   4.897
12960SOL     OW43726   4.725   1.896   4.878
12960SOL    HW143727   4.662   1.824   4.847
12960SOL    HW243728   4.818   1.860   4.878
12961SOL     OW43729   4.494   3.192   4.025
12961SOL    HW143730   4.448   3.105   4.042
12961SOL    HW243731   4.585   3.189   4.066
12962SOL     OW43732   4.342   3.429   5.008
12962SOL    HW143733   4.337   3.511   5.065
12962SOL    HW243734   4.431   3.426   4.963
12963SOL     OW43735   5.076   1.914   3.892
12963SOL    HW143736   5.111   1.873   3.808
12963SOL    HW243737   4.986   1.876   3.912
12964SOL     OW43738   5.024   2.315   4.415
12964SOL    HW143739   4.965   2.395   4.419
12964SOL    HW243740   5.039   2.280   4.508
12965SOL     OW43741   5.317   2.083   4.606
12965SOL    HW143742   5.233   2.082   4.660
12965SOL    HW243743   5.319   2.166   4.550
12966SOL     OW43744   3.763   2.939   4.024
12966SOL    HW143745   3.862   2.928   4.015
12966SOL    HW243746   3.723   2.853   4.056
12967SOL     OW43747   4.599   3.508   4.061
12967SOL    HW143748   4.522   3.473   4.007
12967SOL    HW243749   4.567   3.579   4.123
12968SOL     OW43750   3.954   2.490   5.699
12968SOL    HW143751   3.861   2.488   5.736
12968SOL    HW243752   3.955   2.451   5.607
12969SOL     OW43753   3.949   2.137   6.582
12969SOL    HW143754   3.984   2.120   6.674
12969SOL    HW243755   3.861   2.092   6.570
12970SOL     OW43756   3.743   2.230   6.233
12970SOL    HW143757   3.661   2.273   6.272
12970SOL    HW243758   3.715   2.157   6.170
12971SOL     OW43759   4.293   3.137   6.751
12971SOL    HW143760   4.200   3.130   6.714
12971SOL    HW243761   4.304   3.226   6.795
12972SOL     OW43762   5.279   3.373   6.289
12972SOL    HW143763   5.222   3.357   6.370
12972SOL    HW243764   5.220   3.383   6.209
12973SOL     OW43765   4.859   2.565   6.303
12973SOL    HW143766   4.916   2.643   6.278
12973SOL    HW243767   4.799   2.591   6.379
12974SOL     OW43768   5.479   2.469   5.817
12974SOL    HW143769   5.467   2.456   5.718
12974SOL    HW243770   5.449   2.388   5.866
12975SOL     OW43771   4.492   3.006   6.609
12975SOL    HW143772   4.414   3.023   6.669
12975SOL    HW243773   4.526   3.093   6.573
12976SOL     OW43774   4.574   2.660   7.409
12976SOL    HW143775   4.570   2.736   7.474
12976SOL    HW243776   4.596   2.696   7.318
12977SOL     OW43777   4.409   2.874   6.251
12977SOL    HW143778   4.478   2.858   6.321
12977SOL    HW243779   4.336   2.931   6.289
12978SOL     OW43780   4.410   3.023   7.389
12978SOL    HW143781   4.470   3.102   7.403
12978SOL    HW243782   4.324   3.054   7.348
12979SOL     OW43783   4.059   3.297   6.647
12979SOL    HW143784   3.981   3.266   6.594
12979SOL    HW243785   4.117   3.355   6.590
12980SOL     OW43786   5.184   3.367   6.925
12980SOL    HW143787   5.208   3.461   6.951
12980SOL    HW243788   5.168   3.313   7.007
12981SOL     OW43789   4.162   2.254   7.085
12981SOL    HW143790   4.244   2.198   7.094
12981SOL    HW243791   4.081   2.196   7.089
12982SOL     OW43792   5.327   2.309   6.323
12982SOL    HW143793   5.253   2.355   6.273
12982SOL    HW243794   5.378   2.377   6.376
12983SOL     OW43795   3.955   3.575   6.069
12983SOL    HW143796   3.989   3.652   6.123
12983SOL    HW243797   3.999   3.575   5.979
12984SOL     OW43798   4.851   3.203   7.276
12984SOL    HW143799   4.898   3.203   7.364
12984SOL    HW243800   4.803   3.116   7.265
12985SOL     OW43801   3.954   3.296   6.124
12985SOL    HW143802   3.928   3.392   6.124
12985SOL    HW243803   3.883   3.242   6.169
12986SOL     OW43804   3.964   2.953   6.472
12986SOL    HW143805   3.978   2.869   6.524
12986SOL    HW243806   3.909   3.017   6.527
12987SOL     OW43807   4.344   3.648   7.025
12987SOL    HW143808   4.252   3.631   7.060
12987SOL    HW243809   4.372   3.740   7.051
12988SOL     OW43810   4.330   2.826   5.709
12988SOL    HW143811   4.337   2.910   5.655
12988SOL    HW243812   4.376   2.839   5.797
12989SOL     OW43813   5.318   1.976   7.066
12989SOL    HW143814   5.300   2.043   6.994
12989SOL    HW243815   5.315   2.022   7.155
12990SOL     OW43816   3.846   2.505   6.149
12990SOL    HW143817   3.801   2.417   6.166
12990SOL    HW243818   3.845   2.559   6.233
12991SOL     OW43819   5.566   3.629   5.945
12991SOL    HW143820   5.620   3.600   6.025
12991SOL    HW243821   5.596   3.719   5.916
12992SOL     OW43822   3.751   3.458   5.703
12992SOL    HW143823   3.732   3.362   5.724
12992SOL    HW243824   3.718   3.516   5.778
12993SOL     OW43825   5.413   2.784   6.198
12993SOL    HW143826   5.508   2.755   6.206
12993SOL    HW243827   5.405   2.849   6.123
12994SOL     OW43828   5.365   2.970   6.018
12994SOL    HW143829   5.451   2.972   5.966
12994SOL    HW243830   5.379   3.017   6.106
12995SOL     OW43831   3.837   2.599   7.183
12995SOL    HW143832   3.925   2.586   7.228
12995SOL    HW243833   3.824   2.696   7.161
12996SOL     OW43834   4.337   3.227   6.312
12996SOL    HW143835   4.288   3.140   6.321
12996SOL    HW243836   4.314   3.270   6.225
12997SOL     OW43837   5.017   3.090   7.009
12997SOL    HW143838   5.054   3.017   6.951
12997SOL    HW243839   5.069   3.095   7.094
12998SOL     OW43840   4.533   1.866   6.088
12998SOL    HW143841   4.573   1.957   6.079
12998SOL    HW243842   4.433   1.874   6.094
12999SOL     OW43843   3.921   2.838   6.850
12999SOL    HW143844   4.010   2.793   6.836
12999SOL    HW243845   3.848   2.773   6.831
13000SOL     OW43846   5.249   2.861   5.776
13000SOL    HW143847   5.186   2.785   5.789
13000SOL    HW243848   5.297   2.879   5.862
13001SOL     OW43849   4.911   3.654   7.202
13001SOL    HW143850   4.935   3.714   7.126
13001SOL    HW243851   4.918   3.559   7.172
13002SOL     OW43852   4.041   2.113   7.387
13002SOL    HW143853   4.112   2.184   7.393
13002SOL    HW243854   3.953   2.152   7.415
13003SOL     OW43855   5.190   3.279   6.539
13003SOL    HW143856   5.131   3.285   6.619
13003SOL    HW243857   5.175   3.191   6.493
13004SOL     OW43858   5.391   3.576   6.158
13004SOL    HW143859   5.350   3.553   6.070
13004SOL    HW243860   5.373   3.502   6.223
13005SOL     OW43861   4.322   2.591   5.856
13005SOL    HW143862   4.346   2.660   5.788
13005SOL    HW243863   4.244   2.624   5.910
13006SOL     OW43864   5.005   2.207   6.530
13006SOL    HW143865   4.919   2.157   6.517
13006SOL    HW243866   5.067   2.153   6.586
13007SOL     OW43867   5.300   3.524   5.893
13007SOL    HW143868   5.389   3.570   5.896
13007SOL    HW243869   5.279   3.500   5.798
13008SOL     OW43870   4.531   2.467   7.051
13008SOL    HW143871   4.484   2.464   7.140
13008SOL    HW243872   4.480   2.412   6.985
13009SOL     OW43873   5.118   2.331   7.260
13009SOL    HW143874   5.098   2.374   7.348
13009SOL    HW243875   5.196   2.269   7.269
13010SOL     OW43876   4.697   2.752   7.158
13010SOL    HW143877   4.743   2.668   7.129
13010SOL    HW243878   4.641   2.786   7.083
13011SOL     OW43879   4.715   2.272   6.828
13011SOL    HW143880   4.638   2.306   6.882
13011SOL    HW243881   4.681   2.221   6.749
13012SOL     OW43882   4.765   2.563   6.015
13012SOL    HW143883   4.791   2.559   6.111
13012SOL    HW243884   4.680   2.512   6.001
13013SOL     OW43885   3.800   2.673   6.375
13013SOL    HW143886   3.899   2.661   6.384
13013SOL    HW243887   3.776   2.768   6.396
13014SOL     OW43888   3.854   3.683   7.157
13014SOL    HW143889   3.844   3.668   7.256
13014SOL    HW243890   3.768   3.719   7.121
13015SOL     OW43891   4.589   2.210   5.781
13015SOL    HW143892   4.648   2.273   5.732
13015SOL    HW243893   4.608   2.116   5.752
13016SOL     OW43894   5.443   2.447   7.417
13016SOL    HW143895   5.417   2.536   7.381
13016SOL    HW243896   5.441   2.379   7.344
13017SOL     OW43897   5.086   3.006   6.131
13017SOL    HW143898   5.169   2.977   6.083
13017SOL    HW243899   5.037   3.073   6.075
13018SOL     OW43900   4.274   2.058   6.471
13018SOL    HW143901   4.269   2.053   6.571
13018SOL    HW243902   4.276   2.154   6.442
13019SOL     OW43903   4.732   3.318   6.063
13019SOL    HW143904   4.686   3.390   6.011
13019SOL    HW243905   4.728   3.338   6.161
13020SOL     OW43906   4.075   3.663   6.439
13020SOL    HW143907   4.125   3.577   6.445
13020SOL    HW243908   4.140   3.740   6.436
13021SOL     OW43909   5.519   2.928   6.459
13021SOL    HW143910   5.457   2.913   6.383
13021SOL    HW243911   5.467   2.939   6.544
13022SOL     OW43912   4.951   3.412   7.092
13022SOL    HW143913   4.957   3.335   7.156
13022SOL    HW243914   4.899   3.386   7.012
13023SOL     OW43915   4.045   2.805   5.828
13023SOL    HW143916   4.127   2.844   5.786
13023SOL    HW243917   4.018   2.723   5.779
13024SOL     OW43918   5.182   2.597   6.314
13024SOL    HW143919   5.177   2.532   6.389
13024SOL    HW243920   5.262   2.656   6.327
13025SOL     OW43921   4.185   3.128   7.313
13025SOL    HW143922   4.135   3.129   7.227
13025SOL    HW243923   4.122   3.110   7.389
13026SOL     OW43924   4.835   3.638   5.823
13026SOL    HW143925   4.775   3.576   5.873
13026SOL    HW243926   4.866   3.594   5.738
13027SOL     OW43927   3.926   2.147   7.084
13027SOL    HW143928   3.846   2.207   7.071
13027SOL    HW243929   3.916   2.098   7.170
13028SOL     OW43930   5.356   3.239   5.667
13028SOL    HW143931   5.324   3.333   5.657
13028SOL    HW243932   5.280   3.176   5.655
13029SOL     OW43933   4.188   3.605   5.909
13029SOL    HW143934   4.221   3.644   5.995
13029SOL    HW243935   4.264   3.598   5.844
13030SOL     OW43936   5.124   1.969   6.012
13030SOL    HW143937   5.100   1.932   5.922
13030SOL    HW243938   5.223   1.985   6.016
13031SOL     OW43939   3.973   3.647   6.827
13031SOL    HW143940   4.030   3.582   6.877
13031SOL    HW243941   3.957   3.614   6.734
13032SOL     OW43942   4.664   3.560   6.490
13032SOL    HW143943   4.744   3.503   6.511
13032SOL    HW243944   4.615   3.520   6.413
13033SOL     OW43945   4.106   2.562   6.066
13033SOL    HW143946   4.151   2.472   6.063
13033SOL    HW243947   4.012   2.551   6.099
13034SOL     OW43948   5.271   2.084   7.315
13034SOL    HW143949   5.266   2.121   7.407
13034SOL    HW243950   5.199   2.015   7.303
13035SOL     OW43951   4.338   1.984   5.703
13035SOL    HW143952   4.436   1.962   5.710
13035SOL    HW243953   4.307   1.967   5.610
13036SOL     OW43954   4.505   2.126   7.335
13036SOL    HW143955   4.572   2.065   7.378
13036SOL    HW243956   4.432   2.145   7.400
13037SOL     OW43957   4.612   3.376   6.781
13037SOL    HW143958   4.589   3.351   6.687
13037SOL    HW243959   4.673   3.307   6.820
13038SOL     OW43960   5.075   2.452   7.019
13038SOL    HW143961   5.103   2.409   7.104
13038SOL    HW243962   5.100   2.548   7.020
13039SOL     OW43963   4.527   3.264   6.510
13039SOL    HW143964   4.617   3.278   6.468
13039SOL    HW243965   4.456   3.266   6.439
13040SOL     OW43966   4.646   2.365   6.485
13040SOL    HW143967   4.621   2.356   6.389
13040SOL    HW243968   4.694   2.283   6.516
13041SOL     OW43969   4.263   1.926   6.098
13041SOL    HW143970   4.182   1.927   6.156
13041SOL    HW243971   4.266   2.009   6.043
13042SOL     OW43972   5.158   3.050   5.627
13042SOL    HW143973   5.190   2.974   5.684
13042SOL    HW243974   5.066   3.077   5.657
13043SOL     OW43975   4.021   1.897   5.757
13043SOL    HW143976   4.070   1.981   5.736
13043SOL    HW243977   4.083   1.832   5.802
13044SOL     OW43978   4.659   2.098   6.066
13044SOL    HW143979   4.611   2.139   5.988
13044SOL    HW243980   4.758   2.096   6.047
13045SOL     OW43981   4.800   2.545   7.050
13045SOL    HW143982   4.720   2.484   7.053
13045SOL    HW243983   4.881   2.492   7.026
13046SOL     OW43984   4.951   3.432   6.379
13046SOL    HW143985   4.972   3.506   6.314
13046SOL    HW243986   5.019   3.432   6.452
13047SOL     OW43987   4.183   3.014   6.327
13047SOL    HW143988   4.112   2.987   6.392
13047SOL    HW243989   4.157   2.986   6.234
13048SOL     OW43990   4.995   3.659   6.177
13048SOL    HW143991   5.039   3.723   6.113
13048SOL    HW243992   4.945   3.711   6.247
13049SOL     OW43993   4.756   2.411   5.602
13049SOL    HW143994   4.715   2.493   5.563
13049SOL    HW243995   4.820   2.437   5.675
13050SOL     OW43996   3.802   2.418   6.972
13050SOL    HW143997   3.894   2.417   6.931
13050SOL    HW243998   3.796   2.492   7.039
13051SOL     OW43999   4.285   2.084   6.733
13051SOL    HW144000   4.323   2.000   6.770
13051SOL    HW244001   4.197   2.103   6.777
13052SOL     OW44002   4.590   2.316   6.228
13052SOL    HW144003   4.558   2.388   6.166
13052SOL    HW244004   4.614   2.235   6.175
13053SOL     OW44005   4.741   1.901   6.339
13053SOL    HW144006   4.669   1.906   6.270
13053SOL    HW244007   4.717   1.832   6.408
13054SOL     OW44008   5.153   3.035   6.453
13054SOL    HW144009   5.098   2.951   6.446
13054SOL    HW244010   5.179   3.064   6.361
13055SOL     OW44011   5.190   2.452   6.578
13055SOL    HW144012   5.160   2.357   6.585
13055SOL    HW244013   5.263   2.468   6.644
13056SOL     OW44014   5.581   2.695   5.963
13056SOL    HW144015   5.623   2.631   6.027
13056SOL    HW244016   5.543   2.644   5.885
13057SOL     OW44017   4.212   3.247   5.760
13057SOL    HW144018   4.125   3.232   5.807
13057SOL    HW244019   4.195   3.273   5.665
13058SOL     OW44020   5.388   3.142   6.243
13058SOL    HW144021   5.487   3.150   6.257
13058SOL    HW244022   5.343   3.226   6.274
13059SOL     OW44023   5.114   2.437   5.664
13059SOL    HW144024   5.060   2.416   5.745
13059SOL    HW244025   5.205   2.396   5.673
13060SOL     OW44026   4.251   2.118   5.914
13060SOL    HW144027   4.278   2.059   5.839
13060SOL    HW244028   4.251   2.213   5.883
13061SOL     OW44029   5.478   3.085   7.174
13061SOL    HW144030   5.569   3.046   7.161
13061SOL    HW244031   5.486   3.181   7.198
13062SOL     OW44032   4.788   3.209   6.926
13062SOL    HW144033   4.708   3.186   6.981
13062SOL    HW244034   4.871   3.183   6.975
13063SOL     OW44035   5.316   3.491   7.211
13063SOL    HW144036   5.343   3.525   7.121
13063SOL    HW244037   5.395   3.453   7.257
13064SOL     OW44038   4.835   3.057   6.686
13064SOL    HW144039   4.795   3.101   6.767
13064SOL    HW244040   4.794   3.094   6.603
13065SOL     OW44041   5.362   2.961   6.665
13065SOL    HW144042   5.367   3.042   6.724
13065SOL    HW244043   5.276   2.963   6.614
13066SOL     OW44044   4.639   1.951   6.988
13066SOL    HW144045   4.664   1.931   6.893
13066SOL    HW244046   4.711   2.007   7.030
13067SOL     OW44047   4.704   2.978   7.305
13067SOL    HW144048   4.605   2.984   7.315
13067SOL    HW244049   4.727   2.898   7.249
13068SOL     OW44050   4.429   2.912   5.954
13068SOL    HW144051   4.415   2.919   6.053
13068SOL    HW244052   4.513   2.861   5.936
13069SOL     OW44053   4.134   2.675   6.837
13069SOL    HW144054   4.220   2.687   6.887
13069SOL    HW244055   4.092   2.588   6.864
13070SOL     OW44056   4.998   2.248   6.848
13070SOL    HW144057   5.019   2.322   6.912
13070SOL    HW244058   4.909   2.265   6.805
13071SOL     OW44059   3.788   3.426   6.917
13071SOL    HW144060   3.742   3.508   6.883
13071SOL    HW244061   3.886   3.445   6.926
13072SOL     OW44062   4.091   2.962   6.087
13072SOL    HW144063   4.084   3.045   6.031
13072SOL    HW244064   4.095   2.882   6.027
13073SOL     OW44065   4.290   2.399   6.451
13073SOL    HW144066   4.302   2.465   6.377
13073SOL    HW244067   4.336   2.433   6.534
13074SOL     OW44068   4.976   3.210   5.974
13074SOL    HW144069   5.026   3.287   6.014
13074SOL    HW244070   4.881   3.212   6.006
13075SOL     OW44071   4.996   3.307   6.728
13075SOL    HW144072   5.043   3.320   6.815
13075SOL    HW244073   4.930   3.233   6.737
13076SOL     OW44074   5.306   2.501   6.058
13076SOL    HW144075   5.275   2.562   6.131
13076SOL    HW244076   5.356   2.553   5.989
13077SOL     OW44077   4.078   3.372   6.915
13077SOL    HW144078   4.057   3.328   6.828
13077SOL    HW244079   4.175   3.398   6.918
13078SOL     OW44080   5.311   2.641   7.256
13078SOL    HW144081   5.219   2.679   7.251
13078SOL    HW244082   5.371   2.688   7.191
13079SOL     OW44083   4.737   1.967   7.356
13079SOL    HW144084   4.743   2.052   7.304
13079SOL    HW244085   4.769   1.891   7.299
13080SOL     OW44086   4.228   1.912   7.326
13080SOL    HW144087   4.186   1.855   7.256
13080SOL    HW244088   4.162   1.981   7.358
13081SOL     OW44089   4.297   2.732   6.615
13081SOL    HW144090   4.341   2.821   6.606
13081SOL    HW244091   4.234   2.732   6.692
13082SOL     OW44092   5.084   2.724   6.631
13082SOL    HW144093   5.009   2.724   6.565
13082SOL    HW244094   5.121   2.632   6.640
13083SOL     OW44095   4.933   2.387   5.861
13083SOL    HW144096   4.946   2.303   5.915
13083SOL    HW244097   4.904   2.461   5.921
13084SOL     OW44098   4.031   2.075   6.817
13084SOL    HW144099   4.008   2.112   6.907
13084SOL    HW244100   4.001   1.980   6.811
13085SOL     OW44101   3.761   3.172   6.868
13085SOL    HW144102   3.814   3.123   6.936
13085SOL    HW244103   3.783   3.270   6.873
13086SOL     OW44104   4.456   2.496   6.650
13086SOL    HW144105   4.515   2.470   6.574
13086SOL    HW244106   4.428   2.592   6.639
13087SOL     OW44107   5.452   2.797   7.440
13087SOL    HW144108   5.406   2.790   7.351
13087SOL    HW244109   5.390   2.841   7.506
13088SOL     OW44110   4.031   1.925   6.204
13088SOL    HW144111   4.020   2.019   6.237
13088SOL    HW244112   4.026   1.862   6.281
13089SOL     OW44113   5.346   2.229   5.960
13089SOL    HW144114   5.348   2.153   6.024
13089SOL    HW244115   5.298   2.306   6.000
13090SOL     OW44116   4.747   2.628   6.552
13090SOL    HW144117   4.762   2.649   6.648
13090SOL    HW244118   4.717   2.533   6.543
13091SOL     OW44119   4.704   3.435   7.286
13091SOL    HW144120   4.684   3.479   7.198
13091SOL    HW244121   4.743   3.344   7.270
13092SOL     OW44122   5.583   3.380   7.191
13092SOL    HW144123   5.597   3.407   7.096
13092SOL    HW244124   5.666   3.402   7.244
13093SOL     OW44125   4.074   2.760   7.390
13093SOL    HW144126   4.150   2.804   7.438
13093SOL    HW244127   4.109   2.713   7.308
13094SOL     OW44128   5.264   2.136   5.711
13094SOL    HW144129   5.203   2.061   5.734
13094SOL    HW244130   5.286   2.188   5.794
13095SOL     OW44131   5.027   2.700   5.628
13095SOL    HW144132   5.061   2.607   5.643
13095SOL    HW244133   5.045   2.727   5.533
13096SOL     OW44134   4.792   3.195   6.435
13096SOL    HW144135   4.799   3.111   6.380
13096SOL    HW244136   4.854   3.264   6.399
13097SOL     OW44137   4.043   2.672   6.535
13097SOL    HW144138   4.136   2.708   6.540
13097SOL    HW244139   4.037   2.587   6.587
13098SOL     OW44140   4.063   2.371   6.592
13098SOL    HW144141   4.011   2.288   6.575
13098SOL    HW244142   4.140   2.376   6.528
13099SOL     OW44143   4.862   2.242   7.264
13099SOL    HW144144   4.817   2.305   7.328
13099SOL    HW244145   4.955   2.273   7.247
13100SOL     OW44146   4.884   2.069   7.063
13100SOL    HW144147   4.884   2.133   7.140
13100SOL    HW244148   4.912   2.117   6.980
13101SOL     OW44149   3.732   3.188   5.786
13101SOL    HW144150   3.639   3.209   5.755
13101SOL    HW244151   3.742   3.089   5.799
13102SOL     OW44152   3.812   3.663   6.513
13102SOL    HW144153   3.770   3.577   6.486
13102SOL    HW244154   3.906   3.666   6.479
13103SOL     OW44155   4.228   3.430   6.496
13103SOL    HW144156   4.294   3.504   6.505
13103SOL    HW244157   4.272   3.351   6.454
13104SOL     OW44158   4.726   2.658   6.824
13104SOL    HW144159   4.767   2.626   6.910
13104SOL    HW244160   4.630   2.631   6.821
13105SOL     OW44161   3.764   2.406   6.700
13105SOL    HW144162   3.849   2.373   6.659
13105SOL    HW244163   3.777   2.421   6.798
13106SOL     OW44164   3.913   2.382   7.308
13106SOL    HW144165   3.972   2.342   7.238
13106SOL    HW244166   3.855   2.453   7.267
13107SOL     OW44167   5.093   2.812   7.246
13107SOL    HW144168   5.132   2.901   7.266
13107SOL    HW244169   5.103   2.792   7.149
13108SOL     OW44170   4.539   2.434   5.911
13108SOL    HW144171   4.546   2.345   5.865
13108SOL    HW244172   4.445   2.468   5.903
13109SOL     OW44173   5.381   2.466   6.792
13109SOL    HW144174   5.343   2.397   6.854
13109SOL    HW244175   5.463   2.430   6.748
13110SOL     OW44176   3.976   3.426   7.330
13110SOL    HW144177   3.946   3.483   7.406
13110SOL    HW244178   3.969   3.329   7.356
13111SOL     OW44179   4.395   2.326   6.855
13111SOL    HW144180   4.361   2.237   6.825
13111SOL    HW244181   4.421   2.380   6.775
13112SOL     OW44182   4.654   3.540   7.051
13112SOL    HW144183   4.630   3.522   6.956
13112SOL    HW244184   4.684   3.634   7.061
13113SOL     OW44185   4.197   2.362   5.777
13113SOL    HW144186   4.258   2.442   5.781
13113SOL    HW244187   4.102   2.393   5.784
13114SOL     OW44188   3.883   2.999   7.052
13114SOL    HW144189   3.905   2.938   7.128
13114SOL    HW244190   3.893   2.950   6.966
13115SOL     OW44191   5.071   2.921   6.820
13115SOL    HW144192   5.095   2.858   6.746
13115SOL    HW244193   4.981   2.961   6.802
13116SOL     OW44194   5.026   2.717   5.895
13116SOL    HW144195   4.940   2.686   5.937
13116SOL    HW244196   5.022   2.703   5.796
13117SOL     OW44197   5.483   3.609   6.740
13117SOL    HW144198   5.544   3.639   6.667
13117SOL    HW244199   5.445   3.520   6.718
13118SOL     OW44200   4.976   3.593   6.714
13118SOL    HW144201   5.060   3.598   6.660
13118SOL    HW244202   4.953   3.497   6.732
13119SOL     OW44203   3.807   3.120   6.608
13119SOL    HW144204   3.802   3.119   6.708
13119SOL    HW244205   3.724   3.079   6.570
13120SOL     OW44206   5.450   1.997   6.109
13120SOL    HW144207   5.523   1.980   6.042
13120SOL    HW244208   5.419   1.910   6.147
13121SOL     OW44209   5.112   3.435   6.063
13121SOL    HW144210   5.179   3.447   5.989
13121SOL    HW244211   5.072   3.524   6.086
13122SOL     OW44212   3.854   3.656   7.437
13122SOL    HW144213   3.813   3.582   7.490
13122SOL    HW244214   3.918   3.707   7.495
13123SOL     OW44215   5.004   2.789   6.258
13123SOL    HW144216   5.064   2.708   6.260
13123SOL    HW244217   5.044   2.858   6.198
13124SOL     OW44218   4.554   3.135   7.008
13124SOL    HW144219   4.549   3.168   7.103
13124SOL    HW244220   4.468   3.154   6.962
13125SOL     OW44221   4.396   3.478   5.740
13125SOL    HW144222   4.405   3.488   5.641
13125SOL    HW244223   4.356   3.389   5.761
13126SOL     OW44224   5.374   3.582   6.980
13126SOL    HW144225   5.427   3.592   6.896
13126SOL    HW244226   5.347   3.672   7.014
13127SOL     OW44227   5.565   2.037   6.549
13127SOL    HW144228   5.604   1.952   6.513
13127SOL    HW244229   5.467   2.039   6.530
13128SOL     OW44230   3.987   2.188   6.306
13128SOL    HW144231   3.908   2.239   6.272
13128SOL    HW244232   3.978   2.173   6.404
13129SOL     OW44233   4.918   3.474   5.617
13129SOL    HW144234   4.924   3.381   5.654
13129SOL    HW244235   4.859   3.474   5.537
13130SOL     OW44236   4.546   2.864   6.958
13130SOL    HW144237   4.586   2.863   6.866
13130SOL    HW244238   4.556   2.956   6.998
13131SOL     OW44239   4.640   2.772   5.877
13131SOL    HW144240   4.703   2.810   5.809
13131SOL    HW244241   4.680   2.689   5.916
13132SOL     OW44242   5.228   3.469   5.630
13132SOL    HW144243   5.136   3.506   5.637
13132SOL    HW244244   5.266   3.489   5.540
13133SOL     OW44245   4.096   3.150   7.076
13133SOL    HW144246   4.083   3.243   7.042
13133SOL    HW244247   4.012   3.098   7.063
13134SOL     OW44248   5.338   3.154   6.875
13134SOL    HW144249   5.398   3.157   6.955
13134SOL    HW244250   5.263   3.218   6.888
13135SOL     OW44251   4.763   2.960   6.282
13135SOL    HW144252   4.693   2.913   6.336
13135SOL    HW244253   4.822   2.892   6.239
13136SOL     OW44254   4.738   2.098   6.557
13136SOL    HW144255   4.730   2.062   6.464
13136SOL    HW244256   4.736   2.022   6.622
13137SOL     OW44257   4.314   3.349   6.077
13137SOL    HW144258   4.356   3.291   6.007
13137SOL    HW244259   4.270   3.428   6.033
13138SOL     OW44260   5.433   2.247   6.967
13138SOL    HW144261   5.506   2.316   6.971
13138SOL    HW244262   5.461   2.172   6.908
13139SOL     OW44263   3.979   3.210   5.876
13139SOL    HW144264   3.883   3.211   5.849
13139SOL    HW244265   3.991   3.263   5.960
13140SOL     OW44266   3.829   2.875   7.312
13140SOL    HW144267   3.752   2.842   7.366
13140SOL    HW244268   3.914   2.845   7.354
13141SOL     OW44269   4.396   2.065   7.075
13141SOL    HW144270   4.486   2.049   7.035
13141SOL    HW244271   4.404   2.070   7.174
13142SOL     OW44272   3.799   2.207   5.619
13142SOL    HW144273   3.707   2.179   5.590
13142SOL    HW244274   3.830   2.284   5.563
13143SOL     OW44275   5.164   2.718   6.984
13143SOL    HW144276   5.107   2.770   6.921
13143SOL    HW244277   5.260   2.730   6.960
13144SOL     OW44278   3.796   2.028   5.904
13144SOL    HW144279   3.779   2.111   5.850
13144SOL    HW244280   3.886   1.991   5.882
13145SOL     OW44281   4.907   3.197   5.705
13145SOL    HW144282   4.808   3.186   5.707
13145SOL    HW244283   4.941   3.212   5.798
13146SOL     OW44284   4.337   2.704   7.017
13146SOL    HW144285   4.393   2.785   7.000
13146SOL    HW244286   4.396   2.624   7.020
13147SOL     OW44287   5.217   3.629   6.545
13147SOL    HW144288   5.250   3.693   6.476
13147SOL    HW244289   5.283   3.623   6.620
13148SOL     OW44290   4.440   2.427   7.294
13148SOL    HW144291   4.459   2.492   7.368
13148SOL    HW244292   4.500   2.347   7.303
13149SOL     OW44293   4.114   3.603   7.146
13149SOL    HW144294   4.023   3.644   7.144
13149SOL    HW244295   4.107   3.509   7.178
13150SOL     OW44296   5.398   2.745   6.840
13150SOL    HW144297   5.371   2.656   6.803
13150SOL    HW244298   5.399   2.813   6.767
13151SOL     OW44299   4.949   2.187   6.035
13151SOL    HW144300   5.014   2.113   6.024
13151SOL    HW244301   4.969   2.237   6.119
13152SOL     OW44302   4.318   2.607   6.238
13152SOL    HW144303   4.368   2.692   6.219
13152SOL    HW244304   4.230   2.609   6.190
13153SOL     OW44305   5.501   2.204   7.228
13153SOL    HW144306   5.484   2.235   7.134
13153SOL    HW244307   5.417   2.167   7.266
13154SOL     OW44308   5.454   2.796   7.103
13154SOL    HW144309   5.492   2.887   7.118
13154SOL    HW244310   5.446   2.779   7.004
13155SOL     OW44311   4.385   3.652   6.539
13155SOL    HW144312   4.339   3.740   6.526
13155SOL    HW244313   4.484   3.664   6.532
13156SOL     OW44314   4.583   2.818   6.447
13156SOL    HW144315   4.637   2.749   6.495
13156SOL    HW244316   4.551   2.887   6.513
13157SOL     OW44317   4.807   2.846   5.673
13157SOL    HW144318   4.784   2.899   5.591
13157SOL    HW244319   4.888   2.790   5.654
13158SOL     OW44320   5.585   3.431   6.437
13158SOL    HW144321   5.514   3.419   6.367
13158SOL    HW244322   5.586   3.352   6.497
13159SOL     OW44323   3.945   3.176   7.430
13159SOL    HW144324   3.880   3.103   7.409
13159SOL    HW244325   3.949   3.190   7.528
13160SOL     OW44326   3.803   3.102   6.239
13160SOL    HW144327   3.802   3.055   6.327
13160SOL    HW244328   3.885   3.074   6.188
13161SOL     OW44329   4.396   3.253   7.210
13161SOL    HW144330   4.318   3.203   7.248
13161SOL    HW244331   4.393   3.348   7.241
13162SOL     OW44332   5.548   2.054   6.813
13162SOL    HW144333   5.544   1.964   6.857
13162SOL    HW244334   5.551   2.043   6.714
13163SOL     OW44335   4.152   2.286   6.106
13163SOL    HW144336   4.182   2.214   6.044
13163SOL    HW244337   4.113   2.246   6.189
13164SOL     OW44338   5.429   3.349   6.690
13164SOL    HW144339   5.336   3.324   6.663
13164SOL    HW244340   5.455   3.299   6.772
13165SOL     OW44341   4.041   2.409   6.866
13165SOL    HW144342   4.079   2.350   6.938
13165SOL    HW244343   4.081   2.383   6.778
13166SOL     OW44344   4.536   3.448   6.273
13166SOL    HW144345   4.568   3.458   6.179
13166SOL    HW244346   4.457   3.386   6.275
13167SOL     OW44347   5.148   2.076   6.698
13167SOL    HW144348   5.200   2.011   6.753
13167SOL    HW244349   5.099   2.139   6.759
13168SOL     OW44350   4.725   1.896   6.740
13168SOL    HW144351   4.662   1.824   6.709
13168SOL    HW244352   4.818   1.860   6.740
13169SOL     OW44353   4.494   3.192   5.887
13169SOL    HW144354   4.448   3.105   5.904
13169SOL    HW244355   4.585   3.189   5.928
13170SOL     OW44356   4.342   3.429   6.870
13170SOL    HW144357   4.337   3.511   6.927
13170SOL    HW244358   4.431   3.426   6.825
13171SOL     OW44359   5.076   1.914   5.754
13171SOL    HW144360   5.111   1.873   5.670
13171SOL    HW244361   4.986   1.876   5.774
13172SOL     OW44362   5.024   2.315   6.277
13172SOL    HW144363   4.965   2.395   6.281
13172SOL    HW244364   5.039   2.280   6.370
13173SOL     OW44365   5.317   2.083   6.468
13173SOL    HW144366   5.233   2.082   6.522
13173SOL    HW244367   5.319   2.166   6.412
13174SOL     OW44368   3.763   2.939   5.886
13174SOL    HW144369   3.862   2.928   5.877
13174SOL    HW244370   3.723   2.853   5.918
13175SOL     OW44371   4.599   3.508   5.923
13175SOL    HW144372   4.522   3.473   5.869
13175SOL    HW244373   4.567   3.579   5.985
13176SOL     OW44374   3.954   2.490   7.561
13176SOL    HW144375   3.861   2.488   7.598
13176SOL    HW244376   3.955   2.451   7.469
13177SOL     OW44377   3.949   2.137   8.444
13177SOL    HW144378   3.984   2.120   8.536
13177SOL    HW244379   3.861   2.092   8.432
13178SOL     OW44380   3.743   2.230   8.095
13178SOL    HW144381   3.661   2.273   8.134
13178SOL    HW244382   3.715   2.157   8.032
13179SOL     OW44383   5.279   3.373   8.151
13179SOL    HW144384   5.222   3.357   8.232
13179SOL    HW244385   5.220   3.383   8.071
13180SOL     OW44386   4.859   2.565   8.165
13180SOL    HW144387   4.916   2.643   8.140
13180SOL    HW244388   4.799   2.591   8.241
13181SOL     OW44389   5.479   2.469   7.679
13181SOL    HW144390   5.467   2.456   7.580
13181SOL    HW244391   5.449   2.388   7.728
13182SOL     OW44392   4.492   3.006   8.471
13182SOL    HW144393   4.414   3.023   8.531
13182SOL    HW244394   4.526   3.093   8.435
13183SOL     OW44395   4.574   2.660   9.271
13183SOL    HW144396   4.570   2.736   9.336
13183SOL    HW244397   4.596   2.696   9.180
13184SOL     OW44398   4.409   2.874   8.113
13184SOL    HW144399   4.478   2.858   8.183
13184SOL    HW244400   4.336   2.931   8.151
13185SOL     OW44401   4.410   3.023   9.251
13185SOL    HW144402   4.470   3.102   9.265
13185SOL    HW244403   4.324   3.054   9.210
13186SOL     OW44404   4.059   3.297   8.509
13186SOL    HW144405   3.981   3.266   8.456
13186SOL    HW244406   4.117   3.355   8.452
13187SOL     OW44407   5.184   3.367   8.787
13187SOL    HW144408   5.208   3.461   8.813
13187SOL    HW244409   5.168   3.313   8.869
13188SOL     OW44410   5.327   2.309   8.185
13188SOL    HW144411   5.253   2.355   8.135
13188SOL    HW244412   5.378   2.377   8.238
13189SOL     OW44413   4.851   3.203   9.138
13189SOL    HW144414   4.898   3.203   9.226
13189SOL    HW244415   4.803   3.116   9.127
13190SOL     OW44416   3.954   3.296   7.986
13190SOL    HW144417   3.928   3.392   7.986
13190SOL    HW244418   3.883   3.242   8.031
13191SOL     OW44419   3.964   2.953   8.334
13191SOL    HW144420   3.978   2.869   8.386
13191SOL    HW244421   3.909   3.017   8.389
13192SOL     OW44422   4.344   3.648   8.887
13192SOL    HW144423   4.252   3.631   8.922
13192SOL    HW244424   4.372   3.740   8.913
13193SOL     OW44425   4.330   2.826   7.571
13193SOL    HW144426   4.337   2.910   7.517
13193SOL    HW244427   4.376   2.839   7.659
13194SOL     OW44428   5.318   1.976   8.928
13194SOL    HW144429   5.300   2.043   8.856
13194SOL    HW244430   5.315   2.022   9.017
13195SOL     OW44431   3.846   2.505   8.011
13195SOL    HW144432   3.801   2.417   8.028
13195SOL    HW244433   3.845   2.559   8.095
13196SOL     OW44434   5.566   3.629   7.807
13196SOL    HW144435   5.620   3.600   7.887
13196SOL    HW244436   5.596   3.719   7.778
13197SOL     OW44437   3.751   3.458   7.565
13197SOL    HW144438   3.732   3.362   7.586
13197SOL    HW244439   3.718   3.516   7.640
13198SOL     OW44440   5.365   2.970   7.880
13198SOL    HW144441   5.451   2.972   7.828
13198SOL    HW244442   5.379   3.017   7.968
13199SOL     OW44443   4.337   3.227   8.174
13199SOL    HW144444   4.288   3.140   8.183
13199SOL    HW244445   4.314   3.270   8.087
13200SOL     OW44446   4.533   1.866   7.950
13200SOL    HW144447   4.573   1.957   7.941
13200SOL    HW244448   4.433   1.874   7.956
13201SOL     OW44449   3.921   2.838   8.712
13201SOL    HW144450   4.010   2.793   8.698
13201SOL    HW244451   3.848   2.773   8.693
13202SOL     OW44452   5.249   2.861   7.638
13202SOL    HW144453   5.186   2.785   7.651
13202SOL    HW244454   5.297   2.879   7.724
13203SOL     OW44455   4.911   3.654   9.064
13203SOL    HW144456   4.935   3.714   8.988
13203SOL    HW244457   4.918   3.559   9.034
13204SOL     OW44458   5.190   3.279   8.401
13204SOL    HW144459   5.131   3.285   8.481
13204SOL    HW244460   5.175   3.191   8.355
13205SOL     OW44461   5.391   3.576   8.020
13205SOL    HW144462   5.350   3.553   7.932
13205SOL    HW244463   5.373   3.502   8.085
13206SOL     OW44464   4.322   2.591   7.718
13206SOL    HW144465   4.346   2.660   7.650
13206SOL    HW244466   4.244   2.624   7.772
13207SOL     OW44467   5.005   2.207   8.392
13207SOL    HW144468   4.919   2.157   8.379
13207SOL    HW244469   5.067   2.153   8.448
13208SOL     OW44470   5.300   3.524   7.755
13208SOL    HW144471   5.389   3.570   7.758
13208SOL    HW244472   5.279   3.500   7.660
13209SOL     OW44473   4.531   2.467   8.913
13209SOL    HW144474   4.484   2.464   9.002
13209SOL    HW244475   4.480   2.412   8.847
13210SOL     OW44476   5.118   2.331   9.122
13210SOL    HW144477   5.098   2.374   9.210
13210SOL    HW244478   5.196   2.269   9.131
13211SOL     OW44479   4.697   2.752   9.020
13211SOL    HW144480   4.743   2.668   8.991
13211SOL    HW244481   4.641   2.786   8.945
13212SOL     OW44482   4.715   2.272   8.690
13212SOL    HW144483   4.638   2.306   8.744
13212SOL    HW244484   4.681   2.221   8.611
13213SOL     OW44485   4.765   2.563   7.877
13213SOL    HW144486   4.791   2.559   7.973
13213SOL    HW244487   4.680   2.512   7.863
13214SOL     OW44488   3.800   2.673   8.237
13214SOL    HW144489   3.899   2.661   8.246
13214SOL    HW244490   3.776   2.768   8.258
13215SOL     OW44491   3.854   3.683   9.019
13215SOL    HW144492   3.844   3.668   9.118
13215SOL    HW244493   3.768   3.719   8.983
13216SOL     OW44494   5.443   2.447   9.279
13216SOL    HW144495   5.417   2.536   9.243
13216SOL    HW244496   5.441   2.379   9.206
13217SOL     OW44497   5.086   3.006   7.993
13217SOL    HW144498   5.169   2.977   7.945
13217SOL    HW244499   5.037   3.073   7.937
13218SOL     OW44500   4.274   2.058   8.333
13218SOL    HW144501   4.269   2.053   8.433
13218SOL    HW244502   4.276   2.154   8.304
13219SOL     OW44503   4.732   3.318   7.925
13219SOL    HW144504   4.686   3.390   7.873
13219SOL    HW244505   4.728   3.338   8.023
13220SOL     OW44506   4.075   3.663   8.301
13220SOL    HW144507   4.125   3.577   8.307
13220SOL    HW244508   4.140   3.740   8.298
13221SOL     OW44509   5.519   2.928   8.321
13221SOL    HW144510   5.457   2.913   8.245
13221SOL    HW244511   5.467   2.939   8.406
13222SOL     OW44512   4.951   3.412   8.954
13222SOL    HW144513   4.957   3.335   9.018
13222SOL    HW244514   4.899   3.386   8.874
13223SOL     OW44515   4.045   2.805   7.690
13223SOL    HW144516   4.127   2.844   7.648
13223SOL    HW244517   4.018   2.723   7.641
13224SOL     OW44518   5.182   2.597   8.176
13224SOL    HW144519   5.177   2.532   8.251
13224SOL    HW244520   5.262   2.656   8.189
13225SOL     OW44521   4.185   3.128   9.175
13225SOL    HW144522   4.135   3.129   9.089
13225SOL    HW244523   4.122   3.110   9.251
13226SOL     OW44524   4.835   3.638   7.685
13226SOL    HW144525   4.775   3.576   7.735
13226SOL    HW244526   4.866   3.594   7.600
13227SOL     OW44527   3.926   2.147   8.946
13227SOL    HW144528   3.846   2.207   8.933
13227SOL    HW244529   3.916   2.098   9.032
13228SOL     OW44530   5.356   3.239   7.529
13228SOL    HW144531   5.324   3.333   7.519
13228SOL    HW244532   5.280   3.176   7.517
13229SOL     OW44533   4.188   3.605   7.771
13229SOL    HW144534   4.221   3.644   7.857
13229SOL    HW244535   4.264   3.598   7.706
13230SOL     OW44536   5.124   1.969   7.874
13230SOL    HW144537   5.100   1.932   7.784
13230SOL    HW244538   5.223   1.985   7.878
13231SOL     OW44539   3.973   3.647   8.689
13231SOL    HW144540   4.030   3.582   8.739
13231SOL    HW244541   3.957   3.614   8.596
13232SOL     OW44542   4.664   3.560   8.352
13232SOL    HW144543   4.744   3.503   8.373
13232SOL    HW244544   4.615   3.520   8.275
13233SOL     OW44545   4.106   2.562   7.928
13233SOL    HW144546   4.151   2.472   7.925
13233SOL    HW244547   4.012   2.551   7.961
13234SOL     OW44548   5.271   2.084   9.177
13234SOL    HW144549   5.266   2.121   9.269
13234SOL    HW244550   5.199   2.015   9.165
13235SOL     OW44551   4.338   1.984   7.565
13235SOL    HW144552   4.436   1.962   7.572
13235SOL    HW244553   4.307   1.967   7.472
13236SOL     OW44554   4.505   2.126   9.197
13236SOL    HW144555   4.572   2.065   9.240
13236SOL    HW244556   4.432   2.145   9.262
13237SOL     OW44557   4.612   3.376   8.643
13237SOL    HW144558   4.589   3.351   8.549
13237SOL    HW244559   4.673   3.307   8.682
13238SOL     OW44560   5.075   2.452   8.881
13238SOL    HW144561   5.103   2.409   8.966
13238SOL    HW244562   5.100   2.548   8.882
13239SOL     OW44563   4.527   3.264   8.372
13239SOL    HW144564   4.617   3.278   8.330
13239SOL    HW244565   4.456   3.266   8.301
13240SOL     OW44566   4.646   2.365   8.347
13240SOL    HW144567   4.621   2.356   8.251
13240SOL    HW244568   4.694   2.283   8.378
13241SOL     OW44569   4.263   1.926   7.960
13241SOL    HW144570   4.182   1.927   8.018
13241SOL    HW244571   4.266   2.009   7.905
13242SOL     OW44572   5.158   3.050   7.489
13242SOL    HW144573   5.190   2.974   7.546
13242SOL    HW244574   5.066   3.077   7.519
13243SOL     OW44575   4.021   1.897   7.619
13243SOL    HW144576   4.070   1.981   7.598
13243SOL    HW244577   4.083   1.832   7.664
13244SOL     OW44578   4.659   2.098   7.928
13244SOL    HW144579   4.611   2.139   7.850
13244SOL    HW244580   4.758   2.096   7.909
13245SOL     OW44581   4.800   2.545   8.912
13245SOL    HW144582   4.720   2.484   8.915
13245SOL    HW244583   4.881   2.492   8.888
13246SOL     OW44584   4.183   3.014   8.189
13246SOL    HW144585   4.112   2.987   8.254
13246SOL    HW244586   4.157   2.986   8.096
13247SOL     OW44587   4.995   3.659   8.039
13247SOL    HW144588   5.039   3.723   7.975
13247SOL    HW244589   4.945   3.711   8.109
13248SOL     OW44590   4.756   2.411   7.464
13248SOL    HW144591   4.715   2.493   7.425
13248SOL    HW244592   4.820   2.437   7.537
13249SOL     OW44593   3.802   2.418   8.834
13249SOL    HW144594   3.894   2.417   8.793
13249SOL    HW244595   3.796   2.492   8.901
13250SOL     OW44596   4.285   2.084   8.595
13250SOL    HW144597   4.323   2.000   8.632
13250SOL    HW244598   4.197   2.103   8.639
13251SOL     OW44599   4.590   2.316   8.090
13251SOL    HW144600   4.558   2.388   8.028
13251SOL    HW244601   4.614   2.235   8.037
13252SOL     OW44602   4.741   1.901   8.201
13252SOL    HW144603   4.669   1.906   8.132
13252SOL    HW244604   4.717   1.832   8.270
13253SOL     OW44605   5.153   3.035   8.315
13253SOL    HW144606   5.098   2.951   8.308
13253SOL    HW244607   5.179   3.064   8.223
13254SOL     OW44608   5.190   2.452   8.440
13254SOL    HW144609   5.160   2.357   8.447
13254SOL    HW244610   5.263   2.468   8.506
13255SOL     OW44611   5.581   2.695   7.825
13255SOL    HW144612   5.623   2.631   7.889
13255SOL    HW244613   5.543   2.644   7.747
13256SOL     OW44614   4.212   3.247   7.622
13256SOL    HW144615   4.125   3.232   7.669
13256SOL    HW244616   4.195   3.273   7.527
13257SOL     OW44617   5.388   3.142   8.105
13257SOL    HW144618   5.487   3.150   8.119
13257SOL    HW244619   5.343   3.226   8.136
13258SOL     OW44620   5.114   2.437   7.526
13258SOL    HW144621   5.060   2.416   7.607
13258SOL    HW244622   5.205   2.396   7.535
13259SOL     OW44623   4.251   2.118   7.776
13259SOL    HW144624   4.278   2.059   7.701
13259SOL    HW244625   4.251   2.213   7.745
13260SOL     OW44626   5.478   3.085   9.036
13260SOL    HW144627   5.569   3.046   9.023
13260SOL    HW244628   5.486   3.181   9.060
13261SOL     OW44629   4.788   3.209   8.788
13261SOL    HW144630   4.708   3.186   8.843
13261SOL    HW244631   4.871   3.183   8.837
13262SOL     OW44632   5.316   3.491   9.073
13262SOL    HW144633   5.343   3.525   8.983
13262SOL    HW244634   5.395   3.453   9.119
13263SOL     OW44635   4.835   3.057   8.548
13263SOL    HW144636   4.795   3.101   8.629
13263SOL    HW244637   4.794   3.094   8.465
13264SOL     OW44638   5.362   2.961   8.527
13264SOL    HW144639   5.367   3.042   8.586
13264SOL    HW244640   5.276   2.963   8.476
13265SOL     OW44641   4.704   2.978   9.167
13265SOL    HW144642   4.605   2.984   9.177
13265SOL    HW244643   4.727   2.898   9.111
13266SOL     OW44644   4.429   2.912   7.816
13266SOL    HW144645   4.415   2.919   7.915
13266SOL    HW244646   4.513   2.861   7.798
13267SOL     OW44647   4.134   2.675   8.699
13267SOL    HW144648   4.220   2.687   8.749
13267SOL    HW244649   4.092   2.588   8.726
13268SOL     OW44650   4.998   2.248   8.710
13268SOL    HW144651   5.019   2.322   8.774
13268SOL    HW244652   4.909   2.265   8.667
13269SOL     OW44653   3.788   3.426   8.779
13269SOL    HW144654   3.742   3.508   8.745
13269SOL    HW244655   3.886   3.445   8.788
13270SOL     OW44656   4.091   2.962   7.949
13270SOL    HW144657   4.084   3.045   7.893
13270SOL    HW244658   4.095   2.882   7.889
13271SOL     OW44659   4.290   2.399   8.313
13271SOL    HW144660   4.302   2.465   8.239
13271SOL    HW244661   4.336   2.433   8.396
13272SOL     OW44662   4.976   3.210   7.836
13272SOL    HW144663   5.026   3.287   7.876
13272SOL    HW244664   4.881   3.212   7.868
13273SOL     OW44665   4.996   3.307   8.590
13273SOL    HW144666   5.043   3.320   8.677
13273SOL    HW244667   4.930   3.233   8.599
13274SOL     OW44668   5.306   2.501   7.920
13274SOL    HW144669   5.275   2.562   7.993
13274SOL    HW244670   5.356   2.553   7.851
13275SOL     OW44671   4.078   3.372   8.777
13275SOL    HW144672   4.057   3.328   8.690
13275SOL    HW244673   4.175   3.398   8.780
13276SOL     OW44674   5.311   2.641   9.118
13276SOL    HW144675   5.219   2.679   9.113
13276SOL    HW244676   5.371   2.688   9.053
13277SOL     OW44677   4.737   1.967   9.218
13277SOL    HW144678   4.743   2.052   9.166
13277SOL    HW244679   4.769   1.891   9.161
13278SOL     OW44680   4.228   1.912   9.188
13278SOL    HW144681   4.186   1.855   9.118
13278SOL    HW244682   4.162   1.981   9.220
13279SOL     OW44683   4.297   2.732   8.477
13279SOL    HW144684   4.341   2.821   8.468
13279SOL    HW244685   4.234   2.732   8.554
13280SOL     OW44686   5.084   2.724   8.493
13280SOL    HW144687   5.009   2.724   8.427
13280SOL    HW244688   5.121   2.632   8.502
13281SOL     OW44689   4.933   2.387   7.723
13281SOL    HW144690   4.946   2.303   7.777
13281SOL    HW244691   4.904   2.461   7.783
13282SOL     OW44692   4.031   2.075   8.679
13282SOL    HW144693   4.008   2.112   8.769
13282SOL    HW244694   4.001   1.980   8.673
13283SOL     OW44695   3.761   3.172   8.730
13283SOL    HW144696   3.814   3.123   8.798
13283SOL    HW244697   3.783   3.270   8.735
13284SOL     OW44698   4.456   2.496   8.512
13284SOL    HW144699   4.515   2.470   8.436
13284SOL    HW244700   4.428   2.592   8.501
13285SOL     OW44701   5.452   2.797   9.302
13285SOL    HW144702   5.406   2.790   9.213
13285SOL    HW244703   5.390   2.841   9.368
13286SOL     OW44704   4.031   1.925   8.066
13286SOL    HW144705   4.020   2.019   8.099
13286SOL    HW244706   4.026   1.862   8.143
13287SOL     OW44707   5.346   2.229   7.822
13287SOL    HW144708   5.348   2.153   7.886
13287SOL    HW244709   5.298   2.306   7.862
13288SOL     OW44710   4.747   2.628   8.414
13288SOL    HW144711   4.762   2.649   8.510
13288SOL    HW244712   4.717   2.533   8.405
13289SOL     OW44713   4.704   3.435   9.148
13289SOL    HW144714   4.684   3.479   9.060
13289SOL    HW244715   4.743   3.344   9.132
13290SOL     OW44716   5.583   3.380   9.053
13290SOL    HW144717   5.597   3.407   8.958
13290SOL    HW244718   5.666   3.402   9.106
13291SOL     OW44719   4.074   2.760   9.252
13291SOL    HW144720   4.150   2.804   9.300
13291SOL    HW244721   4.109   2.713   9.170
13292SOL     OW44722   5.264   2.136   7.573
13292SOL    HW144723   5.203   2.061   7.596
13292SOL    HW244724   5.286   2.188   7.656
13293SOL     OW44725   5.027   2.700   7.490
13293SOL    HW144726   5.061   2.607   7.505
13293SOL    HW244727   5.045   2.727   7.395
13294SOL     OW44728   4.792   3.195   8.297
13294SOL    HW144729   4.799   3.111   8.242
13294SOL    HW244730   4.854   3.264   8.261
13295SOL     OW44731   4.043   2.672   8.397
13295SOL    HW144732   4.136   2.708   8.402
13295SOL    HW244733   4.037   2.587   8.449
13296SOL     OW44734   4.063   2.371   8.454
13296SOL    HW144735   4.011   2.288   8.437
13296SOL    HW244736   4.140   2.376   8.390
13297SOL     OW44737   4.862   2.242   9.126
13297SOL    HW144738   4.817   2.305   9.190
13297SOL    HW244739   4.955   2.273   9.109
13298SOL     OW44740   4.884   2.069   8.925
13298SOL    HW144741   4.884   2.133   9.002
13298SOL    HW244742   4.912   2.117   8.842
13299SOL     OW44743   3.732   3.188   7.648
13299SOL    HW144744   3.639   3.209   7.617
13299SOL    HW244745   3.742   3.089   7.661
13300SOL     OW44746   3.812   3.663   8.375
13300SOL    HW144747   3.770   3.577   8.348
13300SOL    HW244748   3.906   3.666   8.341
13301SOL     OW44749   4.228   3.430   8.358
13301SOL    HW144750   4.294   3.504   8.367
13301SOL    HW244751   4.272   3.351   8.316
13302SOL     OW44752   4.726   2.658   8.686
13302SOL    HW144753   4.767   2.626   8.772
13302SOL    HW244754   4.630   2.631   8.683
13303SOL     OW44755   3.764   2.406   8.562
13303SOL    HW144756   3.849   2.373   8.521
13303SOL    HW244757   3.777   2.421   8.660
13304SOL     OW44758   5.093   2.812   9.108
13304SOL    HW144759   5.132   2.901   9.128
13304SOL    HW244760   5.103   2.792   9.011
13305SOL     OW44761   4.539   2.434   7.773
13305SOL    HW144762   4.546   2.345   7.727
13305SOL    HW244763   4.445   2.468   7.765
13306SOL     OW44764   5.381   2.466   8.654
13306SOL    HW144765   5.343   2.397   8.716
13306SOL    HW244766   5.463   2.430   8.610
13307SOL     OW44767   3.976   3.426   9.192
13307SOL    HW144768   3.946   3.483   9.268
13307SOL    HW244769   3.969   3.329   9.218
13308SOL     OW44770   4.395   2.326   8.717
13308SOL    HW144771   4.361   2.237   8.687
13308SOL    HW244772   4.421   2.380   8.637
13309SOL     OW44773   4.654   3.540   8.913
13309SOL    HW144774   4.630   3.522   8.818
13309SOL    HW244775   4.684   3.634   8.923
13310SOL     OW44776   4.197   2.362   7.639
13310SOL    HW144777   4.258   2.442   7.643
13310SOL    HW244778   4.102   2.393   7.646
13311SOL     OW44779   3.883   2.999   8.914
13311SOL    HW144780   3.905   2.938   8.990
13311SOL    HW244781   3.893   2.950   8.828
13312SOL     OW44782   5.071   2.921   8.682
13312SOL    HW144783   5.095   2.858   8.608
13312SOL    HW244784   4.981   2.961   8.664
13313SOL     OW44785   5.026   2.717   7.757
13313SOL    HW144786   4.940   2.686   7.799
13313SOL    HW244787   5.022   2.703   7.658
13314SOL     OW44788   5.483   3.609   8.602
13314SOL    HW144789   5.544   3.639   8.529
13314SOL    HW244790   5.445   3.520   8.580
13315SOL     OW44791   4.976   3.593   8.576
13315SOL    HW144792   5.060   3.598   8.522
13315SOL    HW244793   4.953   3.497   8.594
13316SOL     OW44794   3.807   3.120   8.470
13316SOL    HW144795   3.802   3.119   8.570
13316SOL    HW244796   3.724   3.079   8.432
13317SOL     OW44797   4.412   3.524   9.164
13317SOL    HW144798   4.356   3.605   9.173
13317SOL    HW244799   4.464   3.528   9.078
13318SOL     OW44800   5.450   1.997   7.971
13318SOL    HW144801   5.523   1.980   7.904
13318SOL    HW244802   5.419   1.910   8.009
13319SOL     OW44803   5.112   3.435   7.925
13319SOL    HW144804   5.179   3.447   7.851
13319SOL    HW244805   5.072   3.524   7.948
13320SOL     OW44806   3.854   3.656   9.299
13320SOL    HW144807   3.813   3.582   9.352
13320SOL    HW244808   3.918   3.707   9.357
13321SOL     OW44809   5.004   2.789   8.120
13321SOL    HW144810   5.064   2.708   8.122
13321SOL    HW244811   5.044   2.858   8.060
13322SOL     OW44812   4.554   3.135   8.870
13322SOL    HW144813   4.549   3.168   8.965
13322SOL    HW244814   4.468   3.154   8.824
13323SOL     OW44815   4.396   3.478   7.602
13323SOL    HW144816   4.405   3.488   7.503
13323SOL    HW244817   4.356   3.389   7.623
13324SOL     OW44818   5.374   3.582   8.842
13324SOL    HW144819   5.427   3.592   8.758
13324SOL    HW244820   5.347   3.672   8.876
13325SOL     OW44821   5.565   2.037   8.411
13325SOL    HW144822   5.604   1.952   8.375
13325SOL    HW244823   5.467   2.039   8.392
13326SOL     OW44824   4.918   3.474   7.479
13326SOL    HW144825   4.924   3.381   7.516
13326SOL    HW244826   4.859   3.474   7.399
13327SOL     OW44827   4.546   2.864   8.820
13327SOL    HW144828   4.586   2.863   8.728
13327SOL    HW244829   4.556   2.956   8.860
13328SOL     OW44830   4.640   2.772   7.739
13328SOL    HW144831   4.703   2.810   7.671
13328SOL    HW244832   4.680   2.689   7.778
13329SOL     OW44833   5.228   3.469   7.492
13329SOL    HW144834   5.136   3.506   7.499
13329SOL    HW244835   5.266   3.489   7.402
13330SOL     OW44836   4.096   3.150   8.938
13330SOL    HW144837   4.083   3.243   8.904
13330SOL    HW244838   4.012   3.098   8.925
13331SOL     OW44839   5.338   3.154   8.737
13331SOL    HW144840   5.398   3.157   8.817
13331SOL    HW244841   5.263   3.218   8.750
13332SOL     OW44842   4.763   2.960   8.144
13332SOL    HW144843   4.693   2.913   8.198
13332SOL    HW244844   4.822   2.892   8.101
13333SOL     OW44845   4.738   2.098   8.419
13333SOL    HW144846   4.730   2.062   8.326
13333SOL    HW244847   4.736   2.022   8.484
13334SOL     OW44848   4.314   3.349   7.939
13334SOL    HW144849   4.356   3.291   7.869
13334SOL    HW244850   4.270   3.428   7.895
13335SOL     OW44851   5.433   2.247   8.829
13335SOL    HW144852   5.506   2.316   8.833
13335SOL    HW244853   5.461   2.172   8.770
13336SOL     OW44854   3.979   3.210   7.738
13336SOL    HW144855   3.883   3.211   7.711
13336SOL    HW244856   3.991   3.263   7.822
13337SOL     OW44857   3.829   2.875   9.174
13337SOL    HW144858   3.752   2.842   9.228
13337SOL    HW244859   3.914   2.845   9.216
13338SOL     OW44860   3.799   2.207   7.481
13338SOL    HW144861   3.707   2.179   7.452
13338SOL    HW244862   3.830   2.284   7.425
13339SOL     OW44863   5.164   2.718   8.846
13339SOL    HW144864   5.107   2.770   8.783
13339SOL    HW244865   5.260   2.730   8.822
13340SOL     OW44866   3.796   2.028   7.766
13340SOL    HW144867   3.779   2.111   7.712
13340SOL    HW244868   3.886   1.991   7.744
13341SOL     OW44869   4.907   3.197   7.567
13341SOL    HW144870   4.808   3.186   7.569
13341SOL    HW244871   4.941   3.212   7.660
13342SOL     OW44872   4.337   2.704   8.879
13342SOL    HW144873   4.393   2.785   8.862
13342SOL    HW244874   4.396   2.624   8.882
13343SOL     OW44875   5.217   3.629   8.407
13343SOL    HW144876   5.250   3.693   8.338
13343SOL    HW244877   5.283   3.623   8.482
13344SOL     OW44878   4.440   2.427   9.156
13344SOL    HW144879   4.459   2.492   9.230
13344SOL    HW244880   4.500   2.347   9.165
13345SOL     OW44881   5.174   3.082   9.081
13345SOL    HW144882   5.165   3.072   9.180
13345SOL    HW244883   5.270   3.075   9.055
13346SOL     OW44884   4.114   3.603   9.008
13346SOL    HW144885   4.023   3.644   9.006
13346SOL    HW244886   4.107   3.509   9.040
13347SOL     OW44887   5.398   2.745   8.702
13347SOL    HW144888   5.371   2.656   8.665
13347SOL    HW244889   5.399   2.813   8.629
13348SOL     OW44890   4.949   2.187   7.897
13348SOL    HW144891   5.014   2.113   7.886
13348SOL    HW244892   4.969   2.237   7.981
13349SOL     OW44893   4.318   2.607   8.100
13349SOL    HW144894   4.368   2.692   8.081
13349SOL    HW244895   4.230   2.609   8.052
13350SOL     OW44896   5.501   2.204   9.090
13350SOL    HW144897   5.484   2.235   8.996
13350SOL    HW244898   5.417   2.167   9.128
13351SOL     OW44899   5.454   2.796   8.965
13351SOL    HW144900   5.492   2.887   8.980
13351SOL    HW244901   5.446   2.779   8.866
13352SOL     OW44902   4.583   3.236   7.464
13352SOL    HW144903   4.537   3.251   7.552
13352SOL    HW244904   4.627   3.321   7.434
13353SOL     OW44905   4.385   3.652   8.401
13353SOL    HW144906   4.339   3.740   8.388
13353SOL    HW244907   4.484   3.664   8.394
13354SOL     OW44908   4.583   2.818   8.309
13354SOL    HW144909   4.637   2.749   8.357
13354SOL    HW244910   4.551   2.887   8.375
13355SOL     OW44911   4.807   2.846   7.535
13355SOL    HW144912   4.784   2.899   7.453
13355SOL    HW244913   4.888   2.790   7.516
13356SOL     OW44914   5.585   3.431   8.299
13356SOL    HW144915   5.514   3.419   8.229
13356SOL    HW244916   5.586   3.352   8.359
13357SOL     OW44917   3.945   3.176   9.292
13357SOL    HW144918   3.880   3.103   9.271
13357SOL    HW244919   3.949   3.190   9.390
13358SOL     OW44920   3.803   3.102   8.101
13358SOL    HW144921   3.802   3.055   8.189
13358SOL    HW244922   3.885   3.074   8.050
13359SOL     OW44923   4.396   3.253   9.072
13359SOL    HW144924   4.318   3.203   9.110
13359SOL    HW244925   4.393   3.348   9.103
13360SOL     OW44926   5.548   2.054   8.675
13360SOL    HW144927   5.544   1.964   8.719
13360SOL    HW244928   5.551   2.043   8.576
13361SOL     OW44929   4.152   2.286   7.968
13361SOL    HW144930   4.182   2.214   7.906
13361SOL    HW244931   4.113   2.246   8.051
13362SOL     OW44932   5.429   3.349   8.552
13362SOL    HW144933   5.336   3.324   8.525
13362SOL    HW244934   5.455   3.299   8.634
13363SOL     OW44935   4.041   2.409   8.728
13363SOL    HW144936   4.079   2.350   8.800
13363SOL    HW244937   4.081   2.383   8.640
13364SOL     OW44938   4.536   3.448   8.135
13364SOL    HW144939   4.568   3.458   8.041
13364SOL    HW244940   4.457   3.386   8.137
13365SOL     OW44941   5.148   2.076   8.560
13365SOL    HW144942   5.200   2.011   8.615
13365SOL    HW244943   5.099   2.139   8.621
13366SOL     OW44944   4.494   3.192   7.749
13366SOL    HW144945   4.448   3.105   7.766
13366SOL    HW244946   4.585   3.189   7.790
13367SOL     OW44947   4.342   3.429   8.732
13367SOL    HW144948   4.337   3.511   8.789
13367SOL    HW244949   4.431   3.426   8.687
13368SOL     OW44950   5.076   1.914   7.616
13368SOL    HW144951   5.111   1.873   7.532
13368SOL    HW244952   4.986   1.876   7.636
13369SOL     OW44953   5.024   2.315   8.139
13369SOL    HW144954   4.965   2.395   8.143
13369SOL    HW244955   5.039   2.280   8.232
13370SOL     OW44956   5.317   2.083   8.330
13370SOL    HW144957   5.233   2.082   8.384
13370SOL    HW244958   5.319   2.166   8.274
13371SOL     OW44959   3.763   2.939   7.748
13371SOL    HW144960   3.862   2.928   7.739
13371SOL    HW244961   3.723   2.853   7.780
13372SOL     OW44962   4.599   3.508   7.785
13372SOL    HW144963   4.522   3.473   7.731
13372SOL    HW244964   4.567   3.579   7.847
13373SOL     OW44965   3.954   2.490   9.423
13373SOL    HW144966   3.861   2.488   9.460
13373SOL    HW244967   3.955   2.451   9.331
13374SOL     OW44968   5.479   2.469   9.541
13374SOL    HW144969   5.467   2.456   9.442
13374SOL    HW244970   5.449   2.388   9.590
13375SOL     OW44971   3.955   3.575   9.793
13375SOL    HW144972   3.989   3.652   9.847
13375SOL    HW244973   3.999   3.575   9.703
13376SOL     OW44974   3.954   3.296   9.848
13376SOL    HW144975   3.928   3.392   9.848
13376SOL    HW244976   3.883   3.242   9.893
13377SOL     OW44977   4.330   2.826   9.433
13377SOL    HW144978   4.337   2.910   9.379
13377SOL    HW244979   4.376   2.839   9.521
13378SOL     OW44980   3.846   2.505   9.873
13378SOL    HW144981   3.801   2.417   9.890
13378SOL    HW244982   3.845   2.559   9.957
13379SOL     OW44983   5.566   3.629   9.669
13379SOL    HW144984   5.620   3.600   9.749
13379SOL    HW244985   5.596   3.719   9.640
13380SOL     OW44986   3.751   3.458   9.427
13380SOL    HW144987   3.732   3.362   9.448
13380SOL    HW244988   3.718   3.516   9.502
13381SOL     OW44989   5.413   2.784   9.922
13381SOL    HW144990   5.508   2.755   9.930
13381SOL    HW244991   5.405   2.849   9.847
13382SOL     OW44992   5.365   2.970   9.742
13382SOL    HW144993   5.451   2.972   9.690
13382SOL    HW244994   5.379   3.017   9.830
13383SOL     OW44995   4.337   3.227  10.036
13383SOL    HW144996   4.288   3.140  10.045
13383SOL    HW244997   4.314   3.270   9.949
13384SOL     OW44998   4.533   1.866   9.812
13384SOL    HW144999   4.573   1.957   9.803
13384SOL    HW245000   4.433   1.874   9.818
13385SOL     OW45001   5.249   2.861   9.500
13385SOL    HW145002   5.186   2.785   9.513
13385SOL    HW245003   5.297   2.879   9.586
13386SOL     OW45004   4.322   2.591   9.580
13386SOL    HW145005   4.346   2.660   9.512
13386SOL    HW245006   4.244   2.624   9.634
13387SOL     OW45007   5.300   3.524   9.617
13387SOL    HW145008   5.389   3.570   9.620
13387SOL    HW245009   5.279   3.500   9.522
13388SOL     OW45010   4.765   2.563   9.739
13388SOL    HW145011   4.791   2.559   9.835
13388SOL    HW245012   4.680   2.512   9.725
13389SOL     OW45013   3.800   2.673  10.099
13389SOL    HW145014   3.899   2.661  10.108
13389SOL    HW245015   3.776   2.768  10.120
13390SOL     OW45016   4.589   2.210   9.505
13390SOL    HW145017   4.648   2.273   9.456
13390SOL    HW245018   4.608   2.116   9.476
13391SOL     OW45019   5.086   3.006   9.855
13391SOL    HW145020   5.169   2.977   9.807
13391SOL    HW245021   5.037   3.073   9.799
13392SOL     OW45022   4.732   3.318   9.787
13392SOL    HW145023   4.686   3.390   9.735
13392SOL    HW245024   4.728   3.338   9.885
13393SOL     OW45025   4.075   3.663  10.163
13393SOL    HW145026   4.125   3.577  10.169
13393SOL    HW245027   4.140   3.740  10.160
13394SOL     OW45028   4.045   2.805   9.552
13394SOL    HW145029   4.127   2.844   9.510
13394SOL    HW245030   4.018   2.723   9.503
13395SOL     OW45031   5.356   3.239   9.391
13395SOL    HW145032   5.324   3.333   9.381
13395SOL    HW245033   5.280   3.176   9.379
13396SOL     OW45034   4.188   3.605   9.633
13396SOL    HW145035   4.221   3.644   9.719
13396SOL    HW245036   4.264   3.598   9.568
13397SOL     OW45037   5.124   1.969   9.736
13397SOL    HW145038   5.100   1.932   9.646
13397SOL    HW245039   5.223   1.985   9.740
13398SOL     OW45040   4.106   2.562   9.790
13398SOL    HW145041   4.151   2.472   9.787
13398SOL    HW245042   4.012   2.551   9.823
13399SOL     OW45043   4.338   1.984   9.427
13399SOL    HW145044   4.436   1.962   9.434
13399SOL    HW245045   4.307   1.967   9.334
13400SOL     OW45046   4.263   1.926   9.822
13400SOL    HW145047   4.182   1.927   9.880
13400SOL    HW245048   4.266   2.009   9.767
13401SOL     OW45049   5.158   3.050   9.351
13401SOL    HW145050   5.190   2.974   9.408
13401SOL    HW245051   5.066   3.077   9.381
13402SOL     OW45052   4.021   1.897   9.481
13402SOL    HW145053   4.070   1.981   9.460
13402SOL    HW245054   4.083   1.832   9.526
13403SOL     OW45055   4.659   2.098   9.790
13403SOL    HW145056   4.611   2.139   9.712
13403SOL    HW245057   4.758   2.096   9.771
13404SOL     OW45058   4.183   3.014  10.051
13404SOL    HW145059   4.112   2.987  10.116
13404SOL    HW245060   4.157   2.986   9.958
13405SOL     OW45061   4.995   3.659   9.901
13405SOL    HW145062   5.039   3.723   9.837
13405SOL    HW245063   4.945   3.711   9.971
13406SOL     OW45064   4.756   2.411   9.326
13406SOL    HW145065   4.715   2.493   9.287
13406SOL    HW245066   4.820   2.437   9.399
13407SOL     OW45067   4.590   2.316   9.952
13407SOL    HW145068   4.558   2.388   9.890
13407SOL    HW245069   4.614   2.235   9.899
13408SOL     OW45070   5.581   2.695   9.687
13408SOL    HW145071   5.623   2.631   9.751
13408SOL    HW245072   5.543   2.644   9.609
13409SOL     OW45073   5.114   2.437   9.388
13409SOL    HW145074   5.060   2.416   9.469
13409SOL    HW245075   5.205   2.396   9.397
13410SOL     OW45076   4.251   2.118   9.638
13410SOL    HW145077   4.278   2.059   9.563
13410SOL    HW245078   4.251   2.213   9.607
13411SOL     OW45079   4.429   2.912   9.678
13411SOL    HW145080   4.415   2.919   9.777
13411SOL    HW245081   4.513   2.861   9.660
13412SOL     OW45082   4.091   2.962   9.811
13412SOL    HW145083   4.084   3.045   9.755
13412SOL    HW245084   4.095   2.882   9.751
13413SOL     OW45085   4.976   3.210   9.698
13413SOL    HW145086   5.026   3.287   9.738
13413SOL    HW245087   4.881   3.212   9.730
13414SOL     OW45088   5.306   2.501   9.782
13414SOL    HW145089   5.275   2.562   9.855
13414SOL    HW245090   5.356   2.553   9.713
13415SOL     OW45091   4.933   2.387   9.585
13415SOL    HW145092   4.946   2.303   9.639
13415SOL    HW245093   4.904   2.461   9.645
13416SOL     OW45094   4.031   1.925   9.928
13416SOL    HW145095   4.020   2.019   9.961
13416SOL    HW245096   4.026   1.862  10.005
13417SOL     OW45097   5.346   2.229   9.684
13417SOL    HW145098   5.348   2.153   9.748
13417SOL    HW245099   5.298   2.306   9.724
13418SOL     OW45100   5.264   2.136   9.435
13418SOL    HW145101   5.203   2.061   9.458
13418SOL    HW245102   5.286   2.188   9.518
13419SOL     OW45103   5.027   2.700   9.352
13419SOL    HW145104   5.061   2.607   9.367
13419SOL    HW245105   5.045   2.727   9.257
13420SOL     OW45106   3.732   3.188   9.510
13420SOL    HW145107   3.639   3.209   9.479
13420SOL    HW245108   3.742   3.089   9.523
13421SOL     OW45109   4.539   2.434   9.635
13421SOL    HW145110   4.546   2.345   9.589
13421SOL    HW245111   4.445   2.468   9.627
13422SOL     OW45112   5.026   2.717   9.619
13422SOL    HW145113   4.940   2.686   9.661
13422SOL    HW245114   5.022   2.703   9.520
13423SOL     OW45115   5.450   1.997   9.833
13423SOL    HW145116   5.523   1.980   9.766
13423SOL    HW245117   5.419   1.910   9.871
13424SOL     OW45118   5.112   3.435   9.787
13424SOL    HW145119   5.179   3.447   9.713
13424SOL    HW245120   5.072   3.524   9.810
13425SOL     OW45121   4.396   3.478   9.464
13425SOL    HW145122   4.405   3.488   9.365
13425SOL    HW245123   4.356   3.389   9.485
13426SOL     OW45124   4.918   3.474   9.341
13426SOL    HW145125   4.924   3.381   9.378
13426SOL    HW245126   4.859   3.474   9.261
13427SOL     OW45127   4.640   2.772   9.601
13427SOL    HW145128   4.703   2.810   9.533
13427SOL    HW245129   4.680   2.689   9.640
13428SOL     OW45130   5.228   3.469   9.354
13428SOL    HW145131   5.136   3.506   9.361
13428SOL    HW245132   5.266   3.489   9.264
13429SOL     OW45133   4.314   3.349   9.801
13429SOL    HW145134   4.356   3.291   9.731
13429SOL    HW245135   4.270   3.428   9.757
13430SOL     OW45136   3.979   3.210   9.600
13430SOL    HW145137   3.883   3.211   9.573
13430SOL    HW245138   3.991   3.263   9.684
13431SOL     OW45139   3.799   2.207   9.343
13431SOL    HW145140   3.707   2.179   9.314
13431SOL    HW245141   3.830   2.284   9.287
13432SOL     OW45142   3.796   2.028   9.628
13432SOL    HW145143   3.779   2.111   9.574
13432SOL    HW245144   3.886   1.991   9.606
13433SOL     OW45145   4.907   3.197   9.429
13433SOL    HW145146   4.808   3.186   9.431
13433SOL    HW245147   4.941   3.212   9.522
13434SOL     OW45148   4.949   2.187   9.759
13434SOL    HW145149   5.014   2.113   9.748
13434SOL    HW245150   4.969   2.237   9.843
13435SOL     OW45151   4.318   2.607   9.962
13435SOL    HW145152   4.368   2.692   9.943
13435SOL    HW245153   4.230   2.609   9.914
13436SOL     OW45154   4.583   3.236   9.326
13436SOL    HW145155   4.537   3.251   9.414
13436SOL    HW245156   4.627   3.321   9.296
13437SOL     OW45157   4.807   2.846   9.397
13437SOL    HW145158   4.784   2.899   9.315
13437SOL    HW245159   4.888   2.790   9.378
13438SOL     OW45160   3.803   3.102   9.963
13438SOL    HW145161   3.802   3.055  10.051
13438SOL    HW245162   3.885   3.074   9.912
13439SOL     OW45163   4.152   2.286   9.830
13439SOL    HW145164   4.182   2.214   9.768
13439SOL    HW245165   4.113   2.246   9.913
13440SOL     OW45166   4.494   3.192   9.611
13440SOL    HW145167   4.448   3.105   9.628
13440SOL    HW245168   4.585   3.189   9.652
13441SOL     OW45169   5.076   1.914   9.478
13441SOL    HW145170   5.111   1.873   9.394
13441SOL    HW245171   4.986   1.876   9.498
13442SOL     OW45172   3.763   2.939   9.610
13442SOL    HW145173   3.862   2.928   9.601
13442SOL    HW245174   3.723   2.853   9.642
13443SOL     OW45175   4.599   3.508   9.647
13443SOL    HW145176   4.522   3.473   9.593
13443SOL    HW245177   4.567   3.579   9.709
13444SOL     OW45178   3.954   4.352   0.113
13444SOL    HW145179   3.861   4.350   0.150
13444SOL    HW245180   3.955   4.313   0.021
13445SOL     OW45181   3.949   3.999   0.996
13445SOL    HW145182   3.984   3.982   1.088
13445SOL    HW245183   3.861   3.954   0.984
13446SOL     OW45184   3.743   4.092   0.647
13446SOL    HW145185   3.661   4.135   0.686
13446SOL    HW245186   3.715   4.019   0.584
13447SOL     OW45187   4.293   4.999   1.165
13447SOL    HW145188   4.200   4.992   1.128
13447SOL    HW245189   4.304   5.088   1.209
13448SOL     OW45190   5.279   5.235   0.703
13448SOL    HW145191   5.222   5.219   0.784
13448SOL    HW245192   5.220   5.245   0.623
13449SOL     OW45193   4.859   4.427   0.717
13449SOL    HW145194   4.916   4.505   0.692
13449SOL    HW245195   4.799   4.453   0.793
13450SOL     OW45196   5.479   4.331   0.231
13450SOL    HW145197   5.467   4.318   0.132
13450SOL    HW245198   5.449   4.250   0.280
13451SOL     OW45199   4.492   4.868   1.023
13451SOL    HW145200   4.414   4.885   1.083
13451SOL    HW245201   4.526   4.955   0.987
13452SOL     OW45202   4.574   4.522   1.823
13452SOL    HW145203   4.570   4.598   1.888
13452SOL    HW245204   4.596   4.558   1.732
13453SOL     OW45205   4.409   4.736   0.665
13453SOL    HW145206   4.478   4.720   0.735
13453SOL    HW245207   4.336   4.793   0.703
13454SOL     OW45208   4.410   4.885   1.803
13454SOL    HW145209   4.470   4.964   1.817
13454SOL    HW245210   4.324   4.916   1.762
13455SOL     OW45211   4.059   5.159   1.061
13455SOL    HW145212   3.981   5.128   1.008
13455SOL    HW245213   4.117   5.217   1.004
13456SOL     OW45214   5.184   5.229   1.339
13456SOL    HW145215   5.208   5.323   1.365
13456SOL    HW245216   5.168   5.175   1.421
13457SOL     OW45217   4.162   4.116   1.499
13457SOL    HW145218   4.244   4.060   1.508
13457SOL    HW245219   4.081   4.058   1.503
13458SOL     OW45220   5.327   4.171   0.737
13458SOL    HW145221   5.253   4.217   0.687
13458SOL    HW245222   5.378   4.239   0.790
13459SOL     OW45223   3.955   5.437   0.483
13459SOL    HW145224   3.989   5.514   0.537
13459SOL    HW245225   3.999   5.437   0.393
13460SOL     OW45226   4.851   5.065   1.690
13460SOL    HW145227   4.898   5.065   1.778
13460SOL    HW245228   4.803   4.978   1.679
13461SOL     OW45229   3.954   5.158   0.538
13461SOL    HW145230   3.928   5.254   0.538
13461SOL    HW245231   3.883   5.104   0.583
13462SOL     OW45232   3.964   4.815   0.886
13462SOL    HW145233   3.978   4.731   0.938
13462SOL    HW245234   3.909   4.879   0.941
13463SOL     OW45235   4.344   5.510   1.439
13463SOL    HW145236   4.252   5.493   1.474
13463SOL    HW245237   4.372   5.602   1.465
13464SOL     OW45238   4.330   4.688   0.123
13464SOL    HW145239   4.337   4.772   0.069
13464SOL    HW245240   4.376   4.701   0.211
13465SOL     OW45241   5.318   3.838   1.480
13465SOL    HW145242   5.300   3.905   1.408
13465SOL    HW245243   5.315   3.884   1.569
13466SOL     OW45244   3.846   4.367   0.563
13466SOL    HW145245   3.801   4.279   0.580
13466SOL    HW245246   3.845   4.421   0.647
13467SOL     OW45247   5.566   5.491   0.359
13467SOL    HW145248   5.620   5.462   0.439
13467SOL    HW245249   5.596   5.581   0.330
13468SOL     OW45250   3.751   5.320   0.117
13468SOL    HW145251   3.732   5.224   0.138
13468SOL    HW245252   3.718   5.378   0.192
13469SOL     OW45253   5.413   4.646   0.612
13469SOL    HW145254   5.508   4.617   0.620
13469SOL    HW245255   5.405   4.711   0.537
13470SOL     OW45256   5.365   4.832   0.432
13470SOL    HW145257   5.451   4.834   0.380
13470SOL    HW245258   5.379   4.879   0.520
13471SOL     OW45259   3.837   4.461   1.597
13471SOL    HW145260   3.925   4.448   1.642
13471SOL    HW245261   3.824   4.558   1.575
13472SOL     OW45262   4.337   5.089   0.726
13472SOL    HW145263   4.288   5.002   0.735
13472SOL    HW245264   4.314   5.132   0.639
13473SOL     OW45265   5.017   4.952   1.423
13473SOL    HW145266   5.054   4.879   1.365
13473SOL    HW245267   5.069   4.957   1.508
13474SOL     OW45268   4.533   3.728   0.502
13474SOL    HW145269   4.573   3.819   0.493
13474SOL    HW245270   4.433   3.736   0.508
13475SOL     OW45271   3.921   4.700   1.264
13475SOL    HW145272   4.010   4.655   1.250
13475SOL    HW245273   3.848   4.635   1.245
13476SOL     OW45274   5.249   4.723   0.190
13476SOL    HW145275   5.186   4.647   0.203
13476SOL    HW245276   5.297   4.741   0.276
13477SOL     OW45277   4.911   5.516   1.616
13477SOL    HW145278   4.935   5.576   1.540
13477SOL    HW245279   4.918   5.421   1.586
13478SOL     OW45280   4.041   3.975   1.801
13478SOL    HW145281   4.112   4.046   1.807
13478SOL    HW245282   3.953   4.014   1.829
13479SOL     OW45283   5.190   5.141   0.953
13479SOL    HW145284   5.131   5.147   1.033
13479SOL    HW245285   5.175   5.053   0.907
13480SOL     OW45286   5.391   5.438   0.572
13480SOL    HW145287   5.350   5.415   0.484
13480SOL    HW245288   5.373   5.364   0.637
13481SOL     OW45289   4.322   4.453   0.270
13481SOL    HW145290   4.346   4.522   0.202
13481SOL    HW245291   4.244   4.486   0.324
13482SOL     OW45292   5.005   4.069   0.944
13482SOL    HW145293   4.919   4.019   0.931
13482SOL    HW245294   5.067   4.015   1.000
13483SOL     OW45295   5.300   5.386   0.307
13483SOL    HW145296   5.389   5.432   0.310
13483SOL    HW245297   5.279   5.362   0.212
13484SOL     OW45298   4.531   4.329   1.465
13484SOL    HW145299   4.484   4.326   1.554
13484SOL    HW245300   4.480   4.274   1.399
13485SOL     OW45301   5.118   4.193   1.674
13485SOL    HW145302   5.098   4.236   1.762
13485SOL    HW245303   5.196   4.131   1.683
13486SOL     OW45304   4.697   4.614   1.572
13486SOL    HW145305   4.743   4.530   1.543
13486SOL    HW245306   4.641   4.648   1.497
13487SOL     OW45307   4.715   4.134   1.242
13487SOL    HW145308   4.638   4.168   1.296
13487SOL    HW245309   4.681   4.083   1.163
13488SOL     OW45310   3.800   4.535   0.789
13488SOL    HW145311   3.899   4.523   0.798
13488SOL    HW245312   3.776   4.630   0.810
13489SOL     OW45313   3.854   5.545   1.571
13489SOL    HW145314   3.844   5.530   1.670
13489SOL    HW245315   3.768   5.581   1.535
13490SOL     OW45316   4.589   4.072   0.195
13490SOL    HW145317   4.648   4.135   0.146
13490SOL    HW245318   4.608   3.978   0.166
13491SOL     OW45319   5.443   4.309   1.831
13491SOL    HW145320   5.417   4.398   1.795
13491SOL    HW245321   5.441   4.241   1.758
13492SOL     OW45322   5.086   4.868   0.545
13492SOL    HW145323   5.169   4.839   0.497
13492SOL    HW245324   5.037   4.935   0.489
13493SOL     OW45325   4.274   3.920   0.885
13493SOL    HW145326   4.269   3.915   0.985
13493SOL    HW245327   4.276   4.016   0.856
13494SOL     OW45328   4.075   5.525   0.853
13494SOL    HW145329   4.125   5.439   0.859
13494SOL    HW245330   4.140   5.602   0.850
13495SOL     OW45331   5.519   4.790   0.873
13495SOL    HW145332   5.457   4.775   0.797
13495SOL    HW245333   5.467   4.801   0.958
13496SOL     OW45334   4.951   5.274   1.506
13496SOL    HW145335   4.957   5.197   1.570
13496SOL    HW245336   4.899   5.248   1.426
13497SOL     OW45337   4.045   4.667   0.242
13497SOL    HW145338   4.127   4.706   0.200
13497SOL    HW245339   4.018   4.585   0.193
13498SOL     OW45340   5.182   4.459   0.728
13498SOL    HW145341   5.177   4.394   0.803
13498SOL    HW245342   5.262   4.518   0.741
13499SOL     OW45343   4.185   4.990   1.727
13499SOL    HW145344   4.135   4.991   1.641
13499SOL    HW245345   4.122   4.972   1.803
13500SOL     OW45346   4.835   5.500   0.237
13500SOL    HW145347   4.775   5.438   0.287
13500SOL    HW245348   4.866   5.456   0.152
13501SOL     OW45349   3.926   4.009   1.498
13501SOL    HW145350   3.846   4.069   1.485
13501SOL    HW245351   3.916   3.960   1.584
13502SOL     OW45352   5.356   5.101   0.081
13502SOL    HW145353   5.324   5.195   0.071
13502SOL    HW245354   5.280   5.038   0.069
13503SOL     OW45355   4.188   5.467   0.323
13503SOL    HW145356   4.221   5.506   0.409
13503SOL    HW245357   4.264   5.460   0.258
13504SOL     OW45358   5.124   3.831   0.426
13504SOL    HW145359   5.100   3.794   0.336
13504SOL    HW245360   5.223   3.847   0.430
13505SOL     OW45361   3.973   5.509   1.241
13505SOL    HW145362   4.030   5.444   1.291
13505SOL    HW245363   3.957   5.476   1.148
13506SOL     OW45364   4.106   4.424   0.480
13506SOL    HW145365   4.151   4.334   0.477
13506SOL    HW245366   4.012   4.413   0.513
13507SOL     OW45367   5.271   3.946   1.729
13507SOL    HW145368   5.266   3.983   1.821
13507SOL    HW245369   5.199   3.877   1.717
13508SOL     OW45370   4.338   3.846   0.117
13508SOL    HW145371   4.436   3.824   0.124
13508SOL    HW245372   4.307   3.829   0.024
13509SOL     OW45373   4.505   3.988   1.749
13509SOL    HW145374   4.572   3.927   1.792
13509SOL    HW245375   4.432   4.007   1.814
13510SOL     OW45376   4.612   5.238   1.195
13510SOL    HW145377   4.589   5.213   1.101
13510SOL    HW245378   4.673   5.169   1.234
13511SOL     OW45379   4.527   5.126   0.924
13511SOL    HW145380   4.617   5.140   0.882
13511SOL    HW245381   4.456   5.128   0.853
13512SOL     OW45382   4.646   4.227   0.899
13512SOL    HW145383   4.621   4.218   0.803
13512SOL    HW245384   4.694   4.145   0.930
13513SOL     OW45385   4.263   3.788   0.512
13513SOL    HW145386   4.182   3.789   0.570
13513SOL    HW245387   4.266   3.871   0.457
13514SOL     OW45388   5.158   4.912   0.041
13514SOL    HW145389   5.190   4.836   0.098
13514SOL    HW245390   5.066   4.939   0.071
13515SOL     OW45391   4.659   3.960   0.480
13515SOL    HW145392   4.611   4.001   0.402
13515SOL    HW245393   4.758   3.958   0.461
13516SOL     OW45394   4.800   4.407   1.464
13516SOL    HW145395   4.720   4.346   1.467
13516SOL    HW245396   4.881   4.354   1.440
13517SOL     OW45397   4.183   4.876   0.741
13517SOL    HW145398   4.112   4.849   0.806
13517SOL    HW245399   4.157   4.848   0.648
13518SOL     OW45400   4.995   5.521   0.591
13518SOL    HW145401   5.039   5.585   0.527
13518SOL    HW245402   4.945   5.573   0.661
13519SOL     OW45403   4.756   4.273   0.016
13519SOL    HW145404   4.715   4.355  -0.023
13519SOL    HW245405   4.820   4.299   0.089
13520SOL     OW45406   3.802   4.280   1.386
13520SOL    HW145407   3.894   4.279   1.345
13520SOL    HW245408   3.796   4.354   1.453
13521SOL     OW45409   4.285   3.946   1.147
13521SOL    HW145410   4.323   3.862   1.184
13521SOL    HW245411   4.197   3.965   1.191
13522SOL     OW45412   4.590   4.178   0.642
13522SOL    HW145413   4.558   4.250   0.580
13522SOL    HW245414   4.614   4.097   0.589
13523SOL     OW45415   4.741   3.763   0.753
13523SOL    HW145416   4.669   3.768   0.684
13523SOL    HW245417   4.717   3.694   0.822
13524SOL     OW45418   5.153   4.897   0.867
13524SOL    HW145419   5.098   4.813   0.860
13524SOL    HW245420   5.179   4.926   0.775
13525SOL     OW45421   5.190   4.314   0.992
13525SOL    HW145422   5.160   4.219   0.999
13525SOL    HW245423   5.263   4.330   1.058
13526SOL     OW45424   5.581   4.557   0.377
13526SOL    HW145425   5.623   4.493   0.441
13526SOL    HW245426   5.543   4.506   0.299
13527SOL     OW45427   4.212   5.109   0.174
13527SOL    HW145428   4.125   5.094   0.221
13527SOL    HW245429   4.195   5.135   0.079
13528SOL     OW45430   5.388   5.004   0.657
13528SOL    HW145431   5.487   5.012   0.671
13528SOL    HW245432   5.343   5.088   0.688
13529SOL     OW45433   5.114   4.299   0.078
13529SOL    HW145434   5.060   4.278   0.159
13529SOL    HW245435   5.205   4.258   0.087
13530SOL     OW45436   4.251   3.980   0.328
13530SOL    HW145437   4.278   3.921   0.253
13530SOL    HW245438   4.251   4.075   0.297
13531SOL     OW45439   5.478   4.947   1.588
13531SOL    HW145440   5.569   4.908   1.575
13531SOL    HW245441   5.486   5.043   1.612
13532SOL     OW45442   4.788   5.071   1.340
13532SOL    HW145443   4.708   5.048   1.395
13532SOL    HW245444   4.871   5.045   1.389
13533SOL     OW45445   5.316   5.353   1.625
13533SOL    HW145446   5.343   5.387   1.535
13533SOL    HW245447   5.395   5.315   1.671
13534SOL     OW45448   4.835   4.919   1.100
13534SOL    HW145449   4.795   4.963   1.181
13534SOL    HW245450   4.794   4.956   1.017
13535SOL     OW45451   5.362   4.823   1.079
13535SOL    HW145452   5.367   4.904   1.138
13535SOL    HW245453   5.276   4.825   1.028
13536SOL     OW45454   4.639   3.813   1.402
13536SOL    HW145455   4.664   3.793   1.307
13536SOL    HW245456   4.711   3.869   1.444
13537SOL     OW45457   4.704   4.840   1.719
13537SOL    HW145458   4.605   4.846   1.729
13537SOL    HW245459   4.727   4.760   1.663
13538SOL     OW45460   4.429   4.774   0.368
13538SOL    HW145461   4.415   4.781   0.467
13538SOL    HW245462   4.513   4.723   0.350
13539SOL     OW45463   4.134   4.537   1.251
13539SOL    HW145464   4.220   4.549   1.301
13539SOL    HW245465   4.092   4.450   1.278
13540SOL     OW45466   4.998   4.110   1.262
13540SOL    HW145467   5.019   4.184   1.326
13540SOL    HW245468   4.909   4.127   1.219
13541SOL     OW45469   3.788   5.288   1.331
13541SOL    HW145470   3.742   5.370   1.297
13541SOL    HW245471   3.886   5.307   1.340
13542SOL     OW45472   4.091   4.824   0.501
13542SOL    HW145473   4.084   4.907   0.445
13542SOL    HW245474   4.095   4.744   0.441
13543SOL     OW45475   4.290   4.261   0.865
13543SOL    HW145476   4.302   4.327   0.791
13543SOL    HW245477   4.336   4.295   0.948
13544SOL     OW45478   4.976   5.072   0.388
13544SOL    HW145479   5.026   5.149   0.428
13544SOL    HW245480   4.881   5.074   0.420
13545SOL     OW45481   4.996   5.169   1.142
13545SOL    HW145482   5.043   5.182   1.229
13545SOL    HW245483   4.930   5.095   1.151
13546SOL     OW45484   5.306   4.363   0.472
13546SOL    HW145485   5.275   4.424   0.545
13546SOL    HW245486   5.356   4.415   0.403
13547SOL     OW45487   4.078   5.234   1.329
13547SOL    HW145488   4.057   5.190   1.242
13547SOL    HW245489   4.175   5.260   1.332
13548SOL     OW45490   4.126   4.475   1.598
13548SOL    HW145491   4.194   4.530   1.551
13548SOL    HW245492   4.166   4.387   1.625
13549SOL     OW45493   5.311   4.503   1.670
13549SOL    HW145494   5.219   4.541   1.665
13549SOL    HW245495   5.371   4.550   1.605
13550SOL     OW45496   4.737   3.829   1.770
13550SOL    HW145497   4.743   3.914   1.718
13550SOL    HW245498   4.769   3.753   1.713
13551SOL     OW45499   4.228   3.774   1.740
13551SOL    HW145500   4.186   3.717   1.670
13551SOL    HW245501   4.162   3.843   1.772
13552SOL     OW45502   4.297   4.594   1.029
13552SOL    HW145503   4.341   4.683   1.020
13552SOL    HW245504   4.234   4.594   1.106
13553SOL     OW45505   5.084   4.586   1.045
13553SOL    HW145506   5.009   4.586   0.979
13553SOL    HW245507   5.121   4.494   1.054
13554SOL     OW45508   4.933   4.249   0.275
13554SOL    HW145509   4.946   4.165   0.329
13554SOL    HW245510   4.904   4.323   0.335
13555SOL     OW45511   4.031   3.937   1.231
13555SOL    HW145512   4.008   3.974   1.321
13555SOL    HW245513   4.001   3.842   1.225
13556SOL     OW45514   3.761   5.034   1.282
13556SOL    HW145515   3.814   4.985   1.350
13556SOL    HW245516   3.783   5.132   1.287
13557SOL     OW45517   4.456   4.358   1.064
13557SOL    HW145518   4.515   4.332   0.988
13557SOL    HW245519   4.428   4.454   1.053
13558SOL     OW45520   5.452   4.659   1.854
13558SOL    HW145521   5.406   4.652   1.765
13558SOL    HW245522   5.390   4.703   1.920
13559SOL     OW45523   4.031   3.787   0.618
13559SOL    HW145524   4.020   3.881   0.651
13559SOL    HW245525   4.026   3.724   0.695
13560SOL     OW45526   5.346   4.091   0.374
13560SOL    HW145527   5.348   4.015   0.438
13560SOL    HW245528   5.298   4.168   0.414
13561SOL     OW45529   4.747   4.490   0.966
13561SOL    HW145530   4.762   4.511   1.062
13561SOL    HW245531   4.717   4.395   0.957
13562SOL     OW45532   4.704   5.297   1.700
13562SOL    HW145533   4.684   5.341   1.612
13562SOL    HW245534   4.743   5.206   1.684
13563SOL     OW45535   5.583   5.242   1.605
13563SOL    HW145536   5.597   5.269   1.510
13563SOL    HW245537   5.666   5.264   1.658
13564SOL     OW45538   4.074   4.622   1.804
13564SOL    HW145539   4.150   4.666   1.852
13564SOL    HW245540   4.109   4.575   1.722
13565SOL     OW45541   5.264   3.998   0.125
13565SOL    HW145542   5.203   3.923   0.148
13565SOL    HW245543   5.286   4.050   0.208
13566SOL     OW45544   5.027   4.562   0.042
13566SOL    HW145545   5.061   4.469   0.057
13566SOL    HW245546   5.045   4.589  -0.053
13567SOL     OW45547   4.043   4.534   0.949
13567SOL    HW145548   4.136   4.570   0.954
13567SOL    HW245549   4.037   4.449   1.001
13568SOL     OW45550   4.063   4.233   1.006
13568SOL    HW145551   4.011   4.150   0.989
13568SOL    HW245552   4.140   4.238   0.942
13569SOL     OW45553   4.862   4.104   1.678
13569SOL    HW145554   4.817   4.167   1.742
13569SOL    HW245555   4.955   4.135   1.661
13570SOL     OW45556   4.884   3.931   1.477
13570SOL    HW145557   4.884   3.995   1.554
13570SOL    HW245558   4.912   3.979   1.394
13571SOL     OW45559   3.732   5.050   0.200
13571SOL    HW145560   3.639   5.071   0.169
13571SOL    HW245561   3.742   4.951   0.213
13572SOL     OW45562   3.812   5.525   0.927
13572SOL    HW145563   3.770   5.439   0.900
13572SOL    HW245564   3.906   5.528   0.893
13573SOL     OW45565   4.228   5.292   0.910
13573SOL    HW145566   4.294   5.366   0.919
13573SOL    HW245567   4.272   5.213   0.868
13574SOL     OW45568   4.726   4.520   1.238
13574SOL    HW145569   4.767   4.488   1.324
13574SOL    HW245570   4.630   4.493   1.235
13575SOL     OW45571   3.913   4.244   1.722
13575SOL    HW145572   3.972   4.204   1.652
13575SOL    HW245573   3.855   4.315   1.681
13576SOL     OW45574   5.093   4.674   1.660
13576SOL    HW145575   5.132   4.763   1.680
13576SOL    HW245576   5.103   4.654   1.563
13577SOL     OW45577   4.539   4.296   0.325
13577SOL    HW145578   4.546   4.207   0.279
13577SOL    HW245579   4.445   4.330   0.317
13578SOL     OW45580   5.381   4.328   1.206
13578SOL    HW145581   5.343   4.259   1.268
13578SOL    HW245582   5.463   4.292   1.162
13579SOL     OW45583   3.976   5.288   1.744
13579SOL    HW145584   3.946   5.345   1.820
13579SOL    HW245585   3.969   5.191   1.770
13580SOL     OW45586   4.395   4.188   1.269
13580SOL    HW145587   4.361   4.099   1.239
13580SOL    HW245588   4.421   4.242   1.189
13581SOL     OW45589   4.654   5.402   1.465
13581SOL    HW145590   4.630   5.384   1.370
13581SOL    HW245591   4.684   5.496   1.475
13582SOL     OW45592   4.197   4.224   0.191
13582SOL    HW145593   4.258   4.304   0.195
13582SOL    HW245594   4.102   4.255   0.198
13583SOL     OW45595   3.883   4.861   1.466
13583SOL    HW145596   3.905   4.800   1.542
13583SOL    HW245597   3.893   4.812   1.380
13584SOL     OW45598   5.071   4.783   1.234
13584SOL    HW145599   5.095   4.720   1.160
13584SOL    HW245600   4.981   4.823   1.216
13585SOL     OW45601   5.026   4.579   0.309
13585SOL    HW145602   4.940   4.548   0.351
13585SOL    HW245603   5.022   4.565   0.210
13586SOL     OW45604   5.483   5.471   1.154
13586SOL    HW145605   5.544   5.501   1.081
13586SOL    HW245606   5.445   5.382   1.132
13587SOL     OW45607   4.976   5.455   1.128
13587SOL    HW145608   5.060   5.460   1.074
13587SOL    HW245609   4.953   5.359   1.146
13588SOL     OW45610   3.807   4.982   1.022
13588SOL    HW145611   3.802   4.981   1.122
13588SOL    HW245612   3.724   4.941   0.984
13589SOL     OW45613   4.412   5.386   1.716
13589SOL    HW145614   4.356   5.467   1.725
13589SOL    HW245615   4.464   5.390   1.630
13590SOL     OW45616   4.627   3.810   0.133
13590SOL    HW145617   4.678   3.811   0.047
13590SOL    HW245618   4.683   3.768   0.204
13591SOL     OW45619   5.450   3.859   0.523
13591SOL    HW145620   5.523   3.842   0.456
13591SOL    HW245621   5.419   3.772   0.561
13592SOL     OW45622   5.112   5.297   0.477
13592SOL    HW145623   5.179   5.309   0.403
13592SOL    HW245624   5.072   5.386   0.500
13593SOL     OW45625   3.854   5.518   1.851
13593SOL    HW145626   3.813   5.444   1.904
13593SOL    HW245627   3.918   5.569   1.909
13594SOL     OW45628   5.004   4.651   0.672
13594SOL    HW145629   5.064   4.570   0.674
13594SOL    HW245630   5.044   4.720   0.612
13595SOL     OW45631   4.554   4.997   1.422
13595SOL    HW145632   4.549   5.030   1.517
13595SOL    HW245633   4.468   5.016   1.376
13596SOL     OW45634   4.396   5.340   0.154
13596SOL    HW145635   4.405   5.350   0.055
13596SOL    HW245636   4.356   5.251   0.175
13597SOL     OW45637   5.374   5.444   1.394
13597SOL    HW145638   5.427   5.454   1.310
13597SOL    HW245639   5.347   5.534   1.428
13598SOL     OW45640   5.565   3.899   0.963
13598SOL    HW145641   5.604   3.814   0.927
13598SOL    HW245642   5.467   3.901   0.944
13599SOL     OW45643   3.987   4.050   0.720
13599SOL    HW145644   3.908   4.101   0.686
13599SOL    HW245645   3.978   4.035   0.818
13600SOL     OW45646   4.918   5.336   0.031
13600SOL    HW145647   4.924   5.243   0.068
13600SOL    HW245648   4.859   5.336  -0.049
13601SOL     OW45649   4.546   4.726   1.372
13601SOL    HW145650   4.586   4.725   1.280
13601SOL    HW245651   4.556   4.818   1.412
13602SOL     OW45652   4.640   4.634   0.291
13602SOL    HW145653   4.703   4.672   0.223
13602SOL    HW245654   4.680   4.551   0.330
13603SOL     OW45655   5.228   5.331   0.044
13603SOL    HW145656   5.136   5.368   0.051
13603SOL    HW245657   5.266   5.351  -0.046
13604SOL     OW45658   4.096   5.012   1.490
13604SOL    HW145659   4.083   5.105   1.456
13604SOL    HW245660   4.012   4.960   1.477
13605SOL     OW45661   5.338   5.016   1.289
13605SOL    HW145662   5.398   5.019   1.369
13605SOL    HW245663   5.263   5.080   1.302
13606SOL     OW45664   4.763   4.822   0.696
13606SOL    HW145665   4.693   4.775   0.750
13606SOL    HW245666   4.822   4.754   0.653
13607SOL     OW45667   4.738   3.960   0.971
13607SOL    HW145668   4.730   3.924   0.878
13607SOL    HW245669   4.736   3.884   1.036
13608SOL     OW45670   4.314   5.211   0.491
13608SOL    HW145671   4.356   5.153   0.421
13608SOL    HW245672   4.270   5.290   0.447
13609SOL     OW45673   5.433   4.109   1.381
13609SOL    HW145674   5.506   4.178   1.385
13609SOL    HW245675   5.461   4.034   1.322
13610SOL     OW45676   3.979   5.072   0.290
13610SOL    HW145677   3.883   5.073   0.263
13610SOL    HW245678   3.991   5.125   0.374
13611SOL     OW45679   3.829   4.737   1.726
13611SOL    HW145680   3.752   4.704   1.780
13611SOL    HW245681   3.914   4.707   1.768
13612SOL     OW45682   4.396   3.927   1.489
13612SOL    HW145683   4.486   3.911   1.449
13612SOL    HW245684   4.404   3.932   1.588
13613SOL     OW45685   3.799   4.069   0.033
13613SOL    HW145686   3.707   4.041   0.004
13613SOL    HW245687   3.830   4.146  -0.023
13614SOL     OW45688   5.164   4.580   1.398
13614SOL    HW145689   5.107   4.632   1.335
13614SOL    HW245690   5.260   4.592   1.374
13615SOL     OW45691   3.796   3.890   0.318
13615SOL    HW145692   3.779   3.973   0.264
13615SOL    HW245693   3.886   3.853   0.296
13616SOL     OW45694   4.907   5.059   0.119
13616SOL    HW145695   4.808   5.048   0.121
13616SOL    HW245696   4.941   5.074   0.212
13617SOL     OW45697   4.337   4.566   1.431
13617SOL    HW145698   4.393   4.647   1.414
13617SOL    HW245699   4.396   4.486   1.434
13618SOL     OW45700   5.217   5.491   0.959
13618SOL    HW145701   5.250   5.555   0.890
13618SOL    HW245702   5.283   5.485   1.034
13619SOL     OW45703   4.440   4.289   1.708
13619SOL    HW145704   4.459   4.354   1.782
13619SOL    HW245705   4.500   4.209   1.717
13620SOL     OW45706   5.174   4.944   1.633
13620SOL    HW145707   5.165   4.934   1.732
13620SOL    HW245708   5.270   4.937   1.607
13621SOL     OW45709   4.114   5.465   1.560
13621SOL    HW145710   4.023   5.506   1.558
13621SOL    HW245711   4.107   5.371   1.592
13622SOL     OW45712   5.398   4.607   1.254
13622SOL    HW145713   5.371   4.518   1.217
13622SOL    HW245714   5.399   4.675   1.181
13623SOL     OW45715   4.949   4.049   0.449
13623SOL    HW145716   5.014   3.975   0.438
13623SOL    HW245717   4.969   4.099   0.533
13624SOL     OW45718   4.318   4.469   0.652
13624SOL    HW145719   4.368   4.554   0.633
13624SOL    HW245720   4.230   4.471   0.604
13625SOL     OW45721   5.501   4.066   1.642
13625SOL    HW145722   5.484   4.097   1.548
13625SOL    HW245723   5.417   4.029   1.680
13626SOL     OW45724   5.454   4.658   1.517
13626SOL    HW145725   5.492   4.749   1.532
13626SOL    HW245726   5.446   4.641   1.418
13627SOL     OW45727   4.583   5.098   0.016
13627SOL    HW145728   4.537   5.113   0.104
13627SOL    HW245729   4.627   5.183  -0.014
13628SOL     OW45730   4.385   5.514   0.953
13628SOL    HW145731   4.339   5.602   0.940
13628SOL    HW245732   4.484   5.526   0.946
13629SOL     OW45733   4.583   4.680   0.861
13629SOL    HW145734   4.637   4.611   0.909
13629SOL    HW245735   4.551   4.749   0.927
13630SOL     OW45736   4.807   4.708   0.087
13630SOL    HW145737   4.784   4.761   0.005
13630SOL    HW245738   4.888   4.652   0.068
13631SOL     OW45739   5.585   5.293   0.851
13631SOL    HW145740   5.514   5.281   0.781
13631SOL    HW245741   5.586   5.214   0.911
13632SOL     OW45742   3.945   5.038   1.844
13632SOL    HW145743   3.880   4.965   1.823
13632SOL    HW245744   3.949   5.052   1.942
13633SOL     OW45745   3.803   4.964   0.653
13633SOL    HW145746   3.802   4.917   0.741
13633SOL    HW245747   3.885   4.936   0.602
13634SOL     OW45748   4.396   5.115   1.624
13634SOL    HW145749   4.318   5.065   1.662
13634SOL    HW245750   4.393   5.210   1.655
13635SOL     OW45751   5.548   3.916   1.227
13635SOL    HW145752   5.544   3.826   1.271
13635SOL    HW245753   5.551   3.905   1.128
13636SOL     OW45754   5.429   5.211   1.104
13636SOL    HW145755   5.336   5.186   1.077
13636SOL    HW245756   5.455   5.161   1.186
13637SOL     OW45757   4.041   4.271   1.280
13637SOL    HW145758   4.079   4.212   1.352
13637SOL    HW245759   4.081   4.245   1.192
13638SOL     OW45760   5.148   3.938   1.112
13638SOL    HW145761   5.200   3.873   1.167
13638SOL    HW245762   5.099   4.001   1.173
13639SOL     OW45763   4.725   3.758   1.154
13639SOL    HW145764   4.662   3.686   1.123
13639SOL    HW245765   4.818   3.722   1.154
13640SOL     OW45766   4.494   5.054   0.301
13640SOL    HW145767   4.448   4.967   0.318
13640SOL    HW245768   4.585   5.051   0.342
13641SOL     OW45769   4.342   5.291   1.284
13641SOL    HW145770   4.337   5.373   1.341
13641SOL    HW245771   4.431   5.288   1.239
13642SOL     OW45772   5.076   3.776   0.168
13642SOL    HW145773   5.111   3.735   0.084
13642SOL    HW245774   4.986   3.738   0.188
13643SOL     OW45775   5.024   4.177   0.691
13643SOL    HW145776   4.965   4.257   0.695
13643SOL    HW245777   5.039   4.142   0.784
13644SOL     OW45778   5.317   3.945   0.882
13644SOL    HW145779   5.233   3.944   0.936
13644SOL    HW245780   5.319   4.028   0.826
13645SOL     OW45781   3.763   4.801   0.300
13645SOL    HW145782   3.862   4.790   0.291
13645SOL    HW245783   3.723   4.715   0.332
13646SOL     OW45784   3.954   4.352   1.975
13646SOL    HW145785   3.861   4.350   2.012
13646SOL    HW245786   3.955   4.313   1.883
13647SOL     OW45787   3.949   3.999   2.858
13647SOL    HW145788   3.984   3.982   2.950
13647SOL    HW245789   3.861   3.954   2.846
13648SOL     OW45790   3.743   4.092   2.509
13648SOL    HW145791   3.661   4.135   2.548
13648SOL    HW245792   3.715   4.019   2.446
13649SOL     OW45793   4.293   4.999   3.027
13649SOL    HW145794   4.200   4.992   2.990
13649SOL    HW245795   4.304   5.088   3.071
13650SOL     OW45796   5.279   5.235   2.565
13650SOL    HW145797   5.222   5.219   2.646
13650SOL    HW245798   5.220   5.245   2.485
13651SOL     OW45799   4.859   4.427   2.579
13651SOL    HW145800   4.916   4.505   2.554
13651SOL    HW245801   4.799   4.453   2.655
13652SOL     OW45802   5.479   4.331   2.093
13652SOL    HW145803   5.467   4.318   1.994
13652SOL    HW245804   5.449   4.250   2.142
13653SOL     OW45805   4.492   4.868   2.885
13653SOL    HW145806   4.414   4.885   2.945
13653SOL    HW245807   4.526   4.955   2.849
13654SOL     OW45808   4.574   4.522   3.685
13654SOL    HW145809   4.570   4.598   3.750
13654SOL    HW245810   4.596   4.558   3.594
13655SOL     OW45811   4.409   4.736   2.527
13655SOL    HW145812   4.478   4.720   2.597
13655SOL    HW245813   4.336   4.793   2.565
13656SOL     OW45814   4.410   4.885   3.665
13656SOL    HW145815   4.470   4.964   3.679
13656SOL    HW245816   4.324   4.916   3.624
13657SOL     OW45817   4.059   5.159   2.923
13657SOL    HW145818   3.981   5.128   2.870
13657SOL    HW245819   4.117   5.217   2.866
13658SOL     OW45820   5.184   5.229   3.201
13658SOL    HW145821   5.208   5.323   3.227
13658SOL    HW245822   5.168   5.175   3.283
13659SOL     OW45823   4.162   4.116   3.361
13659SOL    HW145824   4.244   4.060   3.370
13659SOL    HW245825   4.081   4.058   3.365
13660SOL     OW45826   5.327   4.171   2.599
13660SOL    HW145827   5.253   4.217   2.549
13660SOL    HW245828   5.378   4.239   2.652
13661SOL     OW45829   3.955   5.437   2.345
13661SOL    HW145830   3.989   5.514   2.399
13661SOL    HW245831   3.999   5.437   2.255
13662SOL     OW45832   4.851   5.065   3.552
13662SOL    HW145833   4.898   5.065   3.640
13662SOL    HW245834   4.803   4.978   3.541
13663SOL     OW45835   3.954   5.158   2.400
13663SOL    HW145836   3.928   5.254   2.400
13663SOL    HW245837   3.883   5.104   2.445
13664SOL     OW45838   4.344   5.510   3.301
13664SOL    HW145839   4.252   5.493   3.336
13664SOL    HW245840   4.372   5.602   3.327
13665SOL     OW45841   4.330   4.688   1.985
13665SOL    HW145842   4.337   4.772   1.931
13665SOL    HW245843   4.376   4.701   2.073
13666SOL     OW45844   5.318   3.838   3.342
13666SOL    HW145845   5.300   3.905   3.270
13666SOL    HW245846   5.315   3.884   3.431
13667SOL     OW45847   3.846   4.367   2.425
13667SOL    HW145848   3.801   4.279   2.442
13667SOL    HW245849   3.845   4.421   2.509
13668SOL     OW45850   5.566   5.491   2.221
13668SOL    HW145851   5.620   5.462   2.301
13668SOL    HW245852   5.596   5.581   2.192
13669SOL     OW45853   3.751   5.320   1.979
13669SOL    HW145854   3.732   5.224   2.000
13669SOL    HW245855   3.718   5.378   2.054
13670SOL     OW45856   5.413   4.646   2.474
13670SOL    HW145857   5.508   4.617   2.482
13670SOL    HW245858   5.405   4.711   2.399
13671SOL     OW45859   5.365   4.832   2.294
13671SOL    HW145860   5.451   4.834   2.242
13671SOL    HW245861   5.379   4.879   2.382
13672SOL     OW45862   3.837   4.461   3.459
13672SOL    HW145863   3.925   4.448   3.504
13672SOL    HW245864   3.824   4.558   3.437
13673SOL     OW45865   4.337   5.089   2.588
13673SOL    HW145866   4.288   5.002   2.597
13673SOL    HW245867   4.314   5.132   2.501
13674SOL     OW45868   5.017   4.952   3.285
13674SOL    HW145869   5.054   4.879   3.227
13674SOL    HW245870   5.069   4.957   3.370
13675SOL     OW45871   4.533   3.728   2.364
13675SOL    HW145872   4.573   3.819   2.355
13675SOL    HW245873   4.433   3.736   2.370
13676SOL     OW45874   3.921   4.700   3.126
13676SOL    HW145875   4.010   4.655   3.112
13676SOL    HW245876   3.848   4.635   3.107
13677SOL     OW45877   5.249   4.723   2.052
13677SOL    HW145878   5.186   4.647   2.065
13677SOL    HW245879   5.297   4.741   2.138
13678SOL     OW45880   4.911   5.516   3.478
13678SOL    HW145881   4.935   5.576   3.402
13678SOL    HW245882   4.918   5.421   3.448
13679SOL     OW45883   4.041   3.975   3.663
13679SOL    HW145884   4.112   4.046   3.669
13679SOL    HW245885   3.953   4.014   3.691
13680SOL     OW45886   5.190   5.141   2.815
13680SOL    HW145887   5.131   5.147   2.895
13680SOL    HW245888   5.175   5.053   2.769
13681SOL     OW45889   5.391   5.438   2.434
13681SOL    HW145890   5.350   5.415   2.346
13681SOL    HW245891   5.373   5.364   2.499
13682SOL     OW45892   4.322   4.453   2.132
13682SOL    HW145893   4.346   4.522   2.064
13682SOL    HW245894   4.244   4.486   2.186
13683SOL     OW45895   5.005   4.069   2.806
13683SOL    HW145896   4.919   4.019   2.793
13683SOL    HW245897   5.067   4.015   2.862
13684SOL     OW45898   5.300   5.386   2.169
13684SOL    HW145899   5.389   5.432   2.172
13684SOL    HW245900   5.279   5.362   2.074
13685SOL     OW45901   4.531   4.329   3.327
13685SOL    HW145902   4.484   4.326   3.416
13685SOL    HW245903   4.480   4.274   3.261
13686SOL     OW45904   5.118   4.193   3.536
13686SOL    HW145905   5.098   4.236   3.624
13686SOL    HW245906   5.196   4.131   3.545
13687SOL     OW45907   4.697   4.614   3.434
13687SOL    HW145908   4.743   4.530   3.405
13687SOL    HW245909   4.641   4.648   3.359
13688SOL     OW45910   4.715   4.134   3.104
13688SOL    HW145911   4.638   4.168   3.158
13688SOL    HW245912   4.681   4.083   3.025
13689SOL     OW45913   3.800   4.535   2.651
13689SOL    HW145914   3.899   4.523   2.660
13689SOL    HW245915   3.776   4.630   2.672
13690SOL     OW45916   3.854   5.545   3.433
13690SOL    HW145917   3.844   5.530   3.532
13690SOL    HW245918   3.768   5.581   3.397
13691SOL     OW45919   4.589   4.072   2.057
13691SOL    HW145920   4.648   4.135   2.008
13691SOL    HW245921   4.608   3.978   2.028
13692SOL     OW45922   5.443   4.309   3.693
13692SOL    HW145923   5.417   4.398   3.657
13692SOL    HW245924   5.441   4.241   3.620
13693SOL     OW45925   5.086   4.868   2.407
13693SOL    HW145926   5.169   4.839   2.359
13693SOL    HW245927   5.037   4.935   2.351
13694SOL     OW45928   4.274   3.920   2.747
13694SOL    HW145929   4.269   3.915   2.847
13694SOL    HW245930   4.276   4.016   2.718
13695SOL     OW45931   4.732   5.180   2.339
13695SOL    HW145932   4.686   5.252   2.287
13695SOL    HW245933   4.728   5.200   2.437
13696SOL     OW45934   4.075   5.525   2.715
13696SOL    HW145935   4.125   5.439   2.721
13696SOL    HW245936   4.140   5.602   2.712
13697SOL     OW45937   5.519   4.790   2.735
13697SOL    HW145938   5.457   4.775   2.659
13697SOL    HW245939   5.467   4.801   2.820
13698SOL     OW45940   4.951   5.274   3.368
13698SOL    HW145941   4.957   5.197   3.432
13698SOL    HW245942   4.899   5.248   3.288
13699SOL     OW45943   4.045   4.667   2.104
13699SOL    HW145944   4.127   4.706   2.062
13699SOL    HW245945   4.018   4.585   2.055
13700SOL     OW45946   5.182   4.459   2.590
13700SOL    HW145947   5.177   4.394   2.665
13700SOL    HW245948   5.262   4.518   2.603
13701SOL     OW45949   4.185   4.990   3.589
13701SOL    HW145950   4.135   4.991   3.503
13701SOL    HW245951   4.122   4.972   3.665
13702SOL     OW45952   4.835   5.500   2.099
13702SOL    HW145953   4.775   5.438   2.149
13702SOL    HW245954   4.866   5.456   2.014
13703SOL     OW45955   3.926   4.009   3.360
13703SOL    HW145956   3.846   4.069   3.347
13703SOL    HW245957   3.916   3.960   3.446
13704SOL     OW45958   5.356   5.101   1.943
13704SOL    HW145959   5.324   5.195   1.933
13704SOL    HW245960   5.280   5.038   1.931
13705SOL     OW45961   4.188   5.467   2.185
13705SOL    HW145962   4.221   5.506   2.271
13705SOL    HW245963   4.264   5.460   2.120
13706SOL     OW45964   3.973   5.509   3.103
13706SOL    HW145965   4.030   5.444   3.153
13706SOL    HW245966   3.957   5.476   3.010
13707SOL     OW45967   4.664   5.422   2.766
13707SOL    HW145968   4.744   5.365   2.787
13707SOL    HW245969   4.615   5.382   2.689
13708SOL     OW45970   4.106   4.424   2.342
13708SOL    HW145971   4.151   4.334   2.339
13708SOL    HW245972   4.012   4.413   2.375
13709SOL     OW45973   5.271   3.946   3.591
13709SOL    HW145974   5.266   3.983   3.683
13709SOL    HW245975   5.199   3.877   3.579
13710SOL     OW45976   4.338   3.846   1.979
13710SOL    HW145977   4.436   3.824   1.986
13710SOL    HW245978   4.307   3.829   1.886
13711SOL     OW45979   4.505   3.988   3.611
13711SOL    HW145980   4.572   3.927   3.654
13711SOL    HW245981   4.432   4.007   3.676
13712SOL     OW45982   4.612   5.238   3.057
13712SOL    HW145983   4.589   5.213   2.963
13712SOL    HW245984   4.673   5.169   3.096
13713SOL     OW45985   5.075   4.314   3.295
13713SOL    HW145986   5.103   4.271   3.380
13713SOL    HW245987   5.100   4.410   3.296
13714SOL     OW45988   4.527   5.126   2.786
13714SOL    HW145989   4.617   5.140   2.744
13714SOL    HW245990   4.456   5.128   2.715
13715SOL     OW45991   4.646   4.227   2.761
13715SOL    HW145992   4.621   4.218   2.665
13715SOL    HW245993   4.694   4.145   2.792
13716SOL     OW45994   4.263   3.788   2.374
13716SOL    HW145995   4.182   3.789   2.432
13716SOL    HW245996   4.266   3.871   2.319
13717SOL     OW45997   5.158   4.912   1.903
13717SOL    HW145998   5.190   4.836   1.960
13717SOL    HW245999   5.066   4.939   1.933
13718SOL     OW46000   4.021   3.759   2.033
13718SOL    HW146001   4.070   3.843   2.012
13718SOL    HW246002   4.083   3.694   2.078
13719SOL     OW46003   4.659   3.960   2.342
13719SOL    HW146004   4.611   4.001   2.264
13719SOL    HW246005   4.758   3.958   2.323
13720SOL     OW46006   4.800   4.407   3.326
13720SOL    HW146007   4.720   4.346   3.329
13720SOL    HW246008   4.881   4.354   3.302
13721SOL     OW46009   4.951   5.294   2.655
13721SOL    HW146010   4.972   5.368   2.590
13721SOL    HW246011   5.019   5.294   2.728
13722SOL     OW46012   4.183   4.876   2.603
13722SOL    HW146013   4.112   4.849   2.668
13722SOL    HW246014   4.157   4.848   2.510
13723SOL     OW46015   4.995   5.521   2.453
13723SOL    HW146016   5.039   5.585   2.389
13723SOL    HW246017   4.945   5.573   2.523
13724SOL     OW46018   4.756   4.273   1.878
13724SOL    HW146019   4.715   4.355   1.839
13724SOL    HW246020   4.820   4.299   1.951
13725SOL     OW46021   3.802   4.280   3.248
13725SOL    HW146022   3.894   4.279   3.207
13725SOL    HW246023   3.796   4.354   3.315
13726SOL     OW46024   4.285   3.946   3.009
13726SOL    HW146025   4.323   3.862   3.046
13726SOL    HW246026   4.197   3.965   3.053
13727SOL     OW46027   4.590   4.178   2.504
13727SOL    HW146028   4.558   4.250   2.442
13727SOL    HW246029   4.614   4.097   2.451
13728SOL     OW46030   4.741   3.763   2.615
13728SOL    HW146031   4.669   3.768   2.546
13728SOL    HW246032   4.717   3.694   2.684
13729SOL     OW46033   5.190   4.314   2.854
13729SOL    HW146034   5.160   4.219   2.861
13729SOL    HW246035   5.263   4.330   2.920
13730SOL     OW46036   5.581   4.557   2.239
13730SOL    HW146037   5.623   4.493   2.303
13730SOL    HW246038   5.543   4.506   2.161
13731SOL     OW46039   4.212   5.109   2.036
13731SOL    HW146040   4.125   5.094   2.083
13731SOL    HW246041   4.195   5.135   1.941
13732SOL     OW46042   5.388   5.004   2.519
13732SOL    HW146043   5.487   5.012   2.533
13732SOL    HW246044   5.343   5.088   2.550
13733SOL     OW46045   5.114   4.299   1.940
13733SOL    HW146046   5.060   4.278   2.021
13733SOL    HW246047   5.205   4.258   1.949
13734SOL     OW46048   4.251   3.980   2.190
13734SOL    HW146049   4.278   3.921   2.115
13734SOL    HW246050   4.251   4.075   2.159
13735SOL     OW46051   5.478   4.947   3.450
13735SOL    HW146052   5.569   4.908   3.437
13735SOL    HW246053   5.486   5.043   3.474
13736SOL     OW46054   4.788   5.071   3.202
13736SOL    HW146055   4.708   5.048   3.257
13736SOL    HW246056   4.871   5.045   3.251
13737SOL     OW46057   5.316   5.353   3.487
13737SOL    HW146058   5.343   5.387   3.397
13737SOL    HW246059   5.395   5.315   3.533
13738SOL     OW46060   4.835   4.919   2.962
13738SOL    HW146061   4.795   4.963   3.043
13738SOL    HW246062   4.794   4.956   2.879
13739SOL     OW46063   5.362   4.823   2.941
13739SOL    HW146064   5.367   4.904   3.000
13739SOL    HW246065   5.276   4.825   2.890
13740SOL     OW46066   4.639   3.813   3.264
13740SOL    HW146067   4.664   3.793   3.169
13740SOL    HW246068   4.711   3.869   3.306
13741SOL     OW46069   4.704   4.840   3.581
13741SOL    HW146070   4.605   4.846   3.591
13741SOL    HW246071   4.727   4.760   3.525
13742SOL     OW46072   4.429   4.774   2.230
13742SOL    HW146073   4.415   4.781   2.329
13742SOL    HW246074   4.513   4.723   2.212
13743SOL     OW46075   4.134   4.537   3.113
13743SOL    HW146076   4.220   4.549   3.163
13743SOL    HW246077   4.092   4.450   3.140
13744SOL     OW46078   4.998   4.110   3.124
13744SOL    HW146079   5.019   4.184   3.188
13744SOL    HW246080   4.909   4.127   3.081
13745SOL     OW46081   3.788   5.288   3.193
13745SOL    HW146082   3.742   5.370   3.159
13745SOL    HW246083   3.886   5.307   3.202
13746SOL     OW46084   4.091   4.824   2.363
13746SOL    HW146085   4.084   4.907   2.307
13746SOL    HW246086   4.095   4.744   2.303
13747SOL     OW46087   4.290   4.261   2.727
13747SOL    HW146088   4.302   4.327   2.653
13747SOL    HW246089   4.336   4.295   2.810
13748SOL     OW46090   4.976   5.072   2.250
13748SOL    HW146091   5.026   5.149   2.290
13748SOL    HW246092   4.881   5.074   2.282
13749SOL     OW46093   4.996   5.169   3.004
13749SOL    HW146094   5.043   5.182   3.091
13749SOL    HW246095   4.930   5.095   3.013
13750SOL     OW46096   5.306   4.363   2.334
13750SOL    HW146097   5.275   4.424   2.407
13750SOL    HW246098   5.356   4.415   2.265
13751SOL     OW46099   4.078   5.234   3.191
13751SOL    HW146100   4.057   5.190   3.104
13751SOL    HW246101   4.175   5.260   3.194
13752SOL     OW46102   4.126   4.475   3.460
13752SOL    HW146103   4.194   4.530   3.413
13752SOL    HW246104   4.166   4.387   3.487
13753SOL     OW46105   5.311   4.503   3.532
13753SOL    HW146106   5.219   4.541   3.527
13753SOL    HW246107   5.371   4.550   3.467
13754SOL     OW46108   4.737   3.829   3.632
13754SOL    HW146109   4.743   3.914   3.580
13754SOL    HW246110   4.769   3.753   3.575
13755SOL     OW46111   4.228   3.774   3.602
13755SOL    HW146112   4.186   3.717   3.532
13755SOL    HW246113   4.162   3.843   3.634
13756SOL     OW46114   4.297   4.594   2.891
13756SOL    HW146115   4.341   4.683   2.882
13756SOL    HW246116   4.234   4.594   2.968
13757SOL     OW46117   5.084   4.586   2.907
13757SOL    HW146118   5.009   4.586   2.841
13757SOL    HW246119   5.121   4.494   2.916
13758SOL     OW46120   4.933   4.249   2.137
13758SOL    HW146121   4.946   4.165   2.191
13758SOL    HW246122   4.904   4.323   2.197
13759SOL     OW46123   4.031   3.937   3.093
13759SOL    HW146124   4.008   3.974   3.183
13759SOL    HW246125   4.001   3.842   3.087
13760SOL     OW46126   3.761   5.034   3.144
13760SOL    HW146127   3.814   4.985   3.212
13760SOL    HW246128   3.783   5.132   3.149
13761SOL     OW46129   4.456   4.358   2.926
13761SOL    HW146130   4.515   4.332   2.850
13761SOL    HW246131   4.428   4.454   2.915
13762SOL     OW46132   5.452   4.659   3.716
13762SOL    HW146133   5.406   4.652   3.627
13762SOL    HW246134   5.390   4.703   3.782
13763SOL     OW46135   4.031   3.787   2.480
13763SOL    HW146136   4.020   3.881   2.513
13763SOL    HW246137   4.026   3.724   2.557
13764SOL     OW46138   5.346   4.091   2.236
13764SOL    HW146139   5.348   4.015   2.300
13764SOL    HW246140   5.298   4.168   2.276
13765SOL     OW46141   4.747   4.490   2.828
13765SOL    HW146142   4.762   4.511   2.924
13765SOL    HW246143   4.717   4.395   2.819
13766SOL     OW46144   4.704   5.297   3.562
13766SOL    HW146145   4.684   5.341   3.474
13766SOL    HW246146   4.743   5.206   3.546
13767SOL     OW46147   5.583   5.242   3.467
13767SOL    HW146148   5.597   5.269   3.372
13767SOL    HW246149   5.666   5.264   3.520
13768SOL     OW46150   4.074   4.622   3.666
13768SOL    HW146151   4.150   4.666   3.714
13768SOL    HW246152   4.109   4.575   3.584
13769SOL     OW46153   5.264   3.998   1.987
13769SOL    HW146154   5.203   3.923   2.010
13769SOL    HW246155   5.286   4.050   2.070
13770SOL     OW46156   5.027   4.562   1.904
13770SOL    HW146157   5.061   4.469   1.919
13770SOL    HW246158   5.045   4.589   1.809
13771SOL     OW46159   4.792   5.057   2.711
13771SOL    HW146160   4.799   4.973   2.656
13771SOL    HW246161   4.854   5.126   2.675
13772SOL     OW46162   4.043   4.534   2.811
13772SOL    HW146163   4.136   4.570   2.816
13772SOL    HW246164   4.037   4.449   2.863
13773SOL     OW46165   4.063   4.233   2.868
13773SOL    HW146166   4.011   4.150   2.851
13773SOL    HW246167   4.140   4.238   2.804
13774SOL     OW46168   4.862   4.104   3.540
13774SOL    HW146169   4.817   4.167   3.604
13774SOL    HW246170   4.955   4.135   3.523
13775SOL     OW46171   4.884   3.931   3.339
13775SOL    HW146172   4.884   3.995   3.416
13775SOL    HW246173   4.912   3.979   3.256
13776SOL     OW46174   3.732   5.050   2.062
13776SOL    HW146175   3.639   5.071   2.031
13776SOL    HW246176   3.742   4.951   2.075
13777SOL     OW46177   3.812   5.525   2.789
13777SOL    HW146178   3.770   5.439   2.762
13777SOL    HW246179   3.906   5.528   2.755
13778SOL     OW46180   4.228   5.292   2.772
13778SOL    HW146181   4.294   5.366   2.781
13778SOL    HW246182   4.272   5.213   2.730
13779SOL     OW46183   4.726   4.520   3.100
13779SOL    HW146184   4.767   4.488   3.186
13779SOL    HW246185   4.630   4.493   3.097
13780SOL     OW46186   3.764   4.268   2.976
13780SOL    HW146187   3.849   4.235   2.935
13780SOL    HW246188   3.777   4.283   3.074
13781SOL     OW46189   3.913   4.244   3.584
13781SOL    HW146190   3.972   4.204   3.514
13781SOL    HW246191   3.855   4.315   3.543
13782SOL     OW46192   5.093   4.674   3.522
13782SOL    HW146193   5.132   4.763   3.542
13782SOL    HW246194   5.103   4.654   3.425
13783SOL     OW46195   4.539   4.296   2.187
13783SOL    HW146196   4.546   4.207   2.141
13783SOL    HW246197   4.445   4.330   2.179
13784SOL     OW46198   5.381   4.328   3.068
13784SOL    HW146199   5.343   4.259   3.130
13784SOL    HW246200   5.463   4.292   3.024
13785SOL     OW46201   3.976   5.288   3.606
13785SOL    HW146202   3.946   5.345   3.682
13785SOL    HW246203   3.969   5.191   3.632
13786SOL     OW46204   4.395   4.188   3.131
13786SOL    HW146205   4.361   4.099   3.101
13786SOL    HW246206   4.421   4.242   3.051
13787SOL     OW46207   4.654   5.402   3.327
13787SOL    HW146208   4.630   5.384   3.232
13787SOL    HW246209   4.684   5.496   3.337
13788SOL     OW46210   4.197   4.224   2.053
13788SOL    HW146211   4.258   4.304   2.057
13788SOL    HW246212   4.102   4.255   2.060
13789SOL     OW46213   3.883   4.861   3.328
13789SOL    HW146214   3.905   4.800   3.404
13789SOL    HW246215   3.893   4.812   3.242
13790SOL     OW46216   5.071   4.783   3.096
13790SOL    HW146217   5.095   4.720   3.022
13790SOL    HW246218   4.981   4.823   3.078
13791SOL     OW46219   5.026   4.579   2.171
13791SOL    HW146220   4.940   4.548   2.213
13791SOL    HW246221   5.022   4.565   2.072
13792SOL     OW46222   5.483   5.471   3.016
13792SOL    HW146223   5.544   5.501   2.943
13792SOL    HW246224   5.445   5.382   2.994
13793SOL     OW46225   4.976   5.455   2.990
13793SOL    HW146226   5.060   5.460   2.936
13793SOL    HW246227   4.953   5.359   3.008
13794SOL     OW46228   3.807   4.982   2.884
13794SOL    HW146229   3.802   4.981   2.984
13794SOL    HW246230   3.724   4.941   2.846
13795SOL     OW46231   4.412   5.386   3.578
13795SOL    HW146232   4.356   5.467   3.587
13795SOL    HW246233   4.464   5.390   3.492
13796SOL     OW46234   5.450   3.859   2.385
13796SOL    HW146235   5.523   3.842   2.318
13796SOL    HW246236   5.419   3.772   2.423
13797SOL     OW46237   5.112   5.297   2.339
13797SOL    HW146238   5.179   5.309   2.265
13797SOL    HW246239   5.072   5.386   2.362
13798SOL     OW46240   3.854   5.518   3.713
13798SOL    HW146241   3.813   5.444   3.766
13798SOL    HW246242   3.918   5.569   3.771
13799SOL     OW46243   5.004   4.651   2.534
13799SOL    HW146244   5.064   4.570   2.536
13799SOL    HW246245   5.044   4.720   2.474
13800SOL     OW46246   4.554   4.997   3.284
13800SOL    HW146247   4.549   5.030   3.379
13800SOL    HW246248   4.468   5.016   3.238
13801SOL     OW46249   4.396   5.340   2.016
13801SOL    HW146250   4.405   5.350   1.917
13801SOL    HW246251   4.356   5.251   2.037
13802SOL     OW46252   5.374   5.444   3.256
13802SOL    HW146253   5.427   5.454   3.172
13802SOL    HW246254   5.347   5.534   3.290
13803SOL     OW46255   5.565   3.899   2.825
13803SOL    HW146256   5.604   3.814   2.789
13803SOL    HW246257   5.467   3.901   2.806
13804SOL     OW46258   3.987   4.050   2.582
13804SOL    HW146259   3.908   4.101   2.548
13804SOL    HW246260   3.978   4.035   2.680
13805SOL     OW46261   4.918   5.336   1.893
13805SOL    HW146262   4.924   5.243   1.930
13805SOL    HW246263   4.859   5.336   1.813
13806SOL     OW46264   4.546   4.726   3.234
13806SOL    HW146265   4.586   4.725   3.142
13806SOL    HW246266   4.556   4.818   3.274
13807SOL     OW46267   4.640   4.634   2.153
13807SOL    HW146268   4.703   4.672   2.085
13807SOL    HW246269   4.680   4.551   2.192
13808SOL     OW46270   5.228   5.331   1.906
13808SOL    HW146271   5.136   5.368   1.913
13808SOL    HW246272   5.266   5.351   1.816
13809SOL     OW46273   5.338   5.016   3.151
13809SOL    HW146274   5.398   5.019   3.231
13809SOL    HW246275   5.263   5.080   3.164
13810SOL     OW46276   4.763   4.822   2.558
13810SOL    HW146277   4.693   4.775   2.612
13810SOL    HW246278   4.822   4.754   2.515
13811SOL     OW46279   4.738   3.960   2.833
13811SOL    HW146280   4.730   3.924   2.740
13811SOL    HW246281   4.736   3.884   2.898
13812SOL     OW46282   4.314   5.211   2.353
13812SOL    HW146283   4.356   5.153   2.283
13812SOL    HW246284   4.270   5.290   2.309
13813SOL     OW46285   5.433   4.109   3.243
13813SOL    HW146286   5.506   4.178   3.247
13813SOL    HW246287   5.461   4.034   3.184
13814SOL     OW46288   3.979   5.072   2.152
13814SOL    HW146289   3.883   5.073   2.125
13814SOL    HW246290   3.991   5.125   2.236
13815SOL     OW46291   3.829   4.737   3.588
13815SOL    HW146292   3.752   4.704   3.642
13815SOL    HW246293   3.914   4.707   3.630
13816SOL     OW46294   4.396   3.927   3.351
13816SOL    HW146295   4.486   3.911   3.311
13816SOL    HW246296   4.404   3.932   3.450
13817SOL     OW46297   3.799   4.069   1.895
13817SOL    HW146298   3.707   4.041   1.866
13817SOL    HW246299   3.830   4.146   1.839
13818SOL     OW46300   5.164   4.580   3.260
13818SOL    HW146301   5.107   4.632   3.197
13818SOL    HW246302   5.260   4.592   3.236
13819SOL     OW46303   3.796   3.890   2.180
13819SOL    HW146304   3.779   3.973   2.126
13819SOL    HW246305   3.886   3.853   2.158
13820SOL     OW46306   4.907   5.059   1.981
13820SOL    HW146307   4.808   5.048   1.983
13820SOL    HW246308   4.941   5.074   2.074
13821SOL     OW46309   4.337   4.566   3.293
13821SOL    HW146310   4.393   4.647   3.276
13821SOL    HW246311   4.396   4.486   3.296
13822SOL     OW46312   5.217   5.491   2.821
13822SOL    HW146313   5.250   5.555   2.752
13822SOL    HW246314   5.283   5.485   2.896
13823SOL     OW46315   4.440   4.289   3.570
13823SOL    HW146316   4.459   4.354   3.644
13823SOL    HW246317   4.500   4.209   3.579
13824SOL     OW46318   5.174   4.944   3.495
13824SOL    HW146319   5.165   4.934   3.594
13824SOL    HW246320   5.270   4.937   3.469
13825SOL     OW46321   4.114   5.465   3.422
13825SOL    HW146322   4.023   5.506   3.420
13825SOL    HW246323   4.107   5.371   3.454
13826SOL     OW46324   5.398   4.607   3.116
13826SOL    HW146325   5.371   4.518   3.079
13826SOL    HW246326   5.399   4.675   3.043
13827SOL     OW46327   4.949   4.049   2.311
13827SOL    HW146328   5.014   3.975   2.300
13827SOL    HW246329   4.969   4.099   2.395
13828SOL     OW46330   4.318   4.469   2.514
13828SOL    HW146331   4.368   4.554   2.495
13828SOL    HW246332   4.230   4.471   2.466
13829SOL     OW46333   5.501   4.066   3.504
13829SOL    HW146334   5.484   4.097   3.410
13829SOL    HW246335   5.417   4.029   3.542
13830SOL     OW46336   5.454   4.658   3.379
13830SOL    HW146337   5.492   4.749   3.394
13830SOL    HW246338   5.446   4.641   3.280
13831SOL     OW46339   4.583   5.098   1.878
13831SOL    HW146340   4.537   5.113   1.966
13831SOL    HW246341   4.627   5.183   1.848
13832SOL     OW46342   4.385   5.514   2.815
13832SOL    HW146343   4.339   5.602   2.802
13832SOL    HW246344   4.484   5.526   2.808
13833SOL     OW46345   4.583   4.680   2.723
13833SOL    HW146346   4.637   4.611   2.771
13833SOL    HW246347   4.551   4.749   2.789
13834SOL     OW46348   4.807   4.708   1.949
13834SOL    HW146349   4.784   4.761   1.867
13834SOL    HW246350   4.888   4.652   1.930
13835SOL     OW46351   5.585   5.293   2.713
13835SOL    HW146352   5.514   5.281   2.643
13835SOL    HW246353   5.586   5.214   2.773
13836SOL     OW46354   3.945   5.038   3.706
13836SOL    HW146355   3.880   4.965   3.685
13836SOL    HW246356   3.949   5.052   3.804
13837SOL     OW46357   3.803   4.964   2.515
13837SOL    HW146358   3.802   4.917   2.603
13837SOL    HW246359   3.885   4.936   2.464
13838SOL     OW46360   4.396   5.115   3.486
13838SOL    HW146361   4.318   5.065   3.524
13838SOL    HW246362   4.393   5.210   3.517
13839SOL     OW46363   5.548   3.916   3.089
13839SOL    HW146364   5.544   3.826   3.133
13839SOL    HW246365   5.551   3.905   2.990
13840SOL     OW46366   4.152   4.148   2.382
13840SOL    HW146367   4.182   4.076   2.320
13840SOL    HW246368   4.113   4.108   2.465
13841SOL     OW46369   5.429   5.211   2.966
13841SOL    HW146370   5.336   5.186   2.939
13841SOL    HW246371   5.455   5.161   3.048
13842SOL     OW46372   4.041   4.271   3.142
13842SOL    HW146373   4.079   4.212   3.214
13842SOL    HW246374   4.081   4.245   3.054
13843SOL     OW46375   4.536   5.310   2.549
13843SOL    HW146376   4.568   5.320   2.455
13843SOL    HW246377   4.457   5.248   2.551
13844SOL     OW46378   5.148   3.938   2.974
13844SOL    HW146379   5.200   3.873   3.029
13844SOL    HW246380   5.099   4.001   3.035
13845SOL     OW46381   4.725   3.758   3.016
13845SOL    HW146382   4.662   3.686   2.985
13845SOL    HW246383   4.818   3.722   3.016
13846SOL     OW46384   4.494   5.054   2.163
13846SOL    HW146385   4.448   4.967   2.180
13846SOL    HW246386   4.585   5.051   2.204
13847SOL     OW46387   4.342   5.291   3.146
13847SOL    HW146388   4.337   5.373   3.203
13847SOL    HW246389   4.431   5.288   3.101
13848SOL     OW46390   5.076   3.776   2.030
13848SOL    HW146391   5.111   3.735   1.946
13848SOL    HW246392   4.986   3.738   2.050
13849SOL     OW46393   5.024   4.177   2.553
13849SOL    HW146394   4.965   4.257   2.557
13849SOL    HW246395   5.039   4.142   2.646
13850SOL     OW46396   5.317   3.945   2.744
13850SOL    HW146397   5.233   3.944   2.798
13850SOL    HW246398   5.319   4.028   2.688
13851SOL     OW46399   4.599   5.370   2.199
13851SOL    HW146400   4.522   5.335   2.145
13851SOL    HW246401   4.567   5.441   2.261
13852SOL     OW46402   3.954   4.352   3.837
13852SOL    HW146403   3.861   4.350   3.874
13852SOL    HW246404   3.955   4.313   3.745
13853SOL     OW46405   3.949   3.999   4.720
13853SOL    HW146406   3.984   3.982   4.812
13853SOL    HW246407   3.861   3.954   4.708
13854SOL     OW46408   3.743   4.092   4.371
13854SOL    HW146409   3.661   4.135   4.410
13854SOL    HW246410   3.715   4.019   4.308
13855SOL     OW46411   4.293   4.999   4.889
13855SOL    HW146412   4.200   4.992   4.852
13855SOL    HW246413   4.304   5.088   4.933
13856SOL     OW46414   5.279   5.235   4.427
13856SOL    HW146415   5.222   5.219   4.508
13856SOL    HW246416   5.220   5.245   4.347
13857SOL     OW46417   4.859   4.427   4.441
13857SOL    HW146418   4.916   4.505   4.416
13857SOL    HW246419   4.799   4.453   4.517
13858SOL     OW46420   5.479   4.331   3.955
13858SOL    HW146421   5.467   4.318   3.856
13858SOL    HW246422   5.449   4.250   4.004
13859SOL     OW46423   4.492   4.868   4.747
13859SOL    HW146424   4.414   4.885   4.807
13859SOL    HW246425   4.526   4.955   4.711
13860SOL     OW46426   4.574   4.522   5.547
13860SOL    HW146427   4.570   4.598   5.612
13860SOL    HW246428   4.596   4.558   5.456
13861SOL     OW46429   4.409   4.736   4.389
13861SOL    HW146430   4.478   4.720   4.459
13861SOL    HW246431   4.336   4.793   4.427
13862SOL     OW46432   4.410   4.885   5.527
13862SOL    HW146433   4.470   4.964   5.541
13862SOL    HW246434   4.324   4.916   5.486
13863SOL     OW46435   4.059   5.159   4.785
13863SOL    HW146436   3.981   5.128   4.732
13863SOL    HW246437   4.117   5.217   4.728
13864SOL     OW46438   5.184   5.229   5.063
13864SOL    HW146439   5.208   5.323   5.089
13864SOL    HW246440   5.168   5.175   5.145
13865SOL     OW46441   5.327   4.171   4.461
13865SOL    HW146442   5.253   4.217   4.411
13865SOL    HW246443   5.378   4.239   4.514
13866SOL     OW46444   3.955   5.437   4.207
13866SOL    HW146445   3.989   5.514   4.261
13866SOL    HW246446   3.999   5.437   4.117
13867SOL     OW46447   4.851   5.065   5.414
13867SOL    HW146448   4.898   5.065   5.502
13867SOL    HW246449   4.803   4.978   5.403
13868SOL     OW46450   3.954   5.158   4.262
13868SOL    HW146451   3.928   5.254   4.262
13868SOL    HW246452   3.883   5.104   4.307
13869SOL     OW46453   3.964   4.815   4.610
13869SOL    HW146454   3.978   4.731   4.662
13869SOL    HW246455   3.909   4.879   4.665
13870SOL     OW46456   4.344   5.510   5.163
13870SOL    HW146457   4.252   5.493   5.198
13870SOL    HW246458   4.372   5.602   5.189
13871SOL     OW46459   4.330   4.688   3.847
13871SOL    HW146460   4.337   4.772   3.793
13871SOL    HW246461   4.376   4.701   3.935
13872SOL     OW46462   5.318   3.838   5.204
13872SOL    HW146463   5.300   3.905   5.132
13872SOL    HW246464   5.315   3.884   5.293
13873SOL     OW46465   3.846   4.367   4.287
13873SOL    HW146466   3.801   4.279   4.304
13873SOL    HW246467   3.845   4.421   4.371
13874SOL     OW46468   5.566   5.491   4.083
13874SOL    HW146469   5.620   5.462   4.163
13874SOL    HW246470   5.596   5.581   4.054
13875SOL     OW46471   3.751   5.320   3.841
13875SOL    HW146472   3.732   5.224   3.862
13875SOL    HW246473   3.718   5.378   3.916
13876SOL     OW46474   5.413   4.646   4.336
13876SOL    HW146475   5.508   4.617   4.344
13876SOL    HW246476   5.405   4.711   4.261
13877SOL     OW46477   5.365   4.832   4.156
13877SOL    HW146478   5.451   4.834   4.104
13877SOL    HW246479   5.379   4.879   4.244
13878SOL     OW46480   3.837   4.461   5.321
13878SOL    HW146481   3.925   4.448   5.366
13878SOL    HW246482   3.824   4.558   5.299
13879SOL     OW46483   4.337   5.089   4.450
13879SOL    HW146484   4.288   5.002   4.459
13879SOL    HW246485   4.314   5.132   4.363
13880SOL     OW46486   5.017   4.952   5.147
13880SOL    HW146487   5.054   4.879   5.089
13880SOL    HW246488   5.069   4.957   5.232
13881SOL     OW46489   3.921   4.700   4.988
13881SOL    HW146490   4.010   4.655   4.974
13881SOL    HW246491   3.848   4.635   4.969
13882SOL     OW46492   5.249   4.723   3.914
13882SOL    HW146493   5.186   4.647   3.927
13882SOL    HW246494   5.297   4.741   4.000
13883SOL     OW46495   4.911   5.516   5.340
13883SOL    HW146496   4.935   5.576   5.264
13883SOL    HW246497   4.918   5.421   5.310
13884SOL     OW46498   4.041   3.975   5.525
13884SOL    HW146499   4.112   4.046   5.531
13884SOL    HW246500   3.953   4.014   5.553
13885SOL     OW46501   5.190   5.141   4.677
13885SOL    HW146502   5.131   5.147   4.757
13885SOL    HW246503   5.175   5.053   4.631
13886SOL     OW46504   5.391   5.438   4.296
13886SOL    HW146505   5.350   5.415   4.208
13886SOL    HW246506   5.373   5.364   4.361
13887SOL     OW46507   4.322   4.453   3.994
13887SOL    HW146508   4.346   4.522   3.926
13887SOL    HW246509   4.244   4.486   4.048
13888SOL     OW46510   5.005   4.069   4.668
13888SOL    HW146511   4.919   4.019   4.655
13888SOL    HW246512   5.067   4.015   4.724
13889SOL     OW46513   5.300   5.386   4.031
13889SOL    HW146514   5.389   5.432   4.034
13889SOL    HW246515   5.279   5.362   3.936
13890SOL     OW46516   4.531   4.329   5.189
13890SOL    HW146517   4.484   4.326   5.278
13890SOL    HW246518   4.480   4.274   5.123
13891SOL     OW46519   5.118   4.193   5.398
13891SOL    HW146520   5.098   4.236   5.486
13891SOL    HW246521   5.196   4.131   5.407
13892SOL     OW46522   4.697   4.614   5.296
13892SOL    HW146523   4.743   4.530   5.267
13892SOL    HW246524   4.641   4.648   5.221
13893SOL     OW46525   4.715   4.134   4.966
13893SOL    HW146526   4.638   4.168   5.020
13893SOL    HW246527   4.681   4.083   4.887
13894SOL     OW46528   4.765   4.425   4.153
13894SOL    HW146529   4.791   4.421   4.249
13894SOL    HW246530   4.680   4.374   4.139
13895SOL     OW46531   3.800   4.535   4.513
13895SOL    HW146532   3.899   4.523   4.522
13895SOL    HW246533   3.776   4.630   4.534
13896SOL     OW46534   3.854   5.545   5.295
13896SOL    HW146535   3.844   5.530   5.394
13896SOL    HW246536   3.768   5.581   5.259
13897SOL     OW46537   4.589   4.072   3.919
13897SOL    HW146538   4.648   4.135   3.870
13897SOL    HW246539   4.608   3.978   3.890
13898SOL     OW46540   5.443   4.309   5.555
13898SOL    HW146541   5.417   4.398   5.519
13898SOL    HW246542   5.441   4.241   5.482
13899SOL     OW46543   5.086   4.868   4.269
13899SOL    HW146544   5.169   4.839   4.221
13899SOL    HW246545   5.037   4.935   4.213
13900SOL     OW46546   4.274   3.920   4.609
13900SOL    HW146547   4.269   3.915   4.709
13900SOL    HW246548   4.276   4.016   4.580
13901SOL     OW46549   4.732   5.180   4.201
13901SOL    HW146550   4.686   5.252   4.149
13901SOL    HW246551   4.728   5.200   4.299
13902SOL     OW46552   4.075   5.525   4.577
13902SOL    HW146553   4.125   5.439   4.583
13902SOL    HW246554   4.140   5.602   4.574
13903SOL     OW46555   5.519   4.790   4.597
13903SOL    HW146556   5.457   4.775   4.521
13903SOL    HW246557   5.467   4.801   4.682
13904SOL     OW46558   4.951   5.274   5.230
13904SOL    HW146559   4.957   5.197   5.294
13904SOL    HW246560   4.899   5.248   5.150
13905SOL     OW46561   4.045   4.667   3.966
13905SOL    HW146562   4.127   4.706   3.924
13905SOL    HW246563   4.018   4.585   3.917
13906SOL     OW46564   5.182   4.459   4.452
13906SOL    HW146565   5.177   4.394   4.527
13906SOL    HW246566   5.262   4.518   4.465
13907SOL     OW46567   4.185   4.990   5.451
13907SOL    HW146568   4.135   4.991   5.365
13907SOL    HW246569   4.122   4.972   5.527
13908SOL     OW46570   4.835   5.500   3.961
13908SOL    HW146571   4.775   5.438   4.011
13908SOL    HW246572   4.866   5.456   3.876
13909SOL     OW46573   3.926   4.009   5.222
13909SOL    HW146574   3.846   4.069   5.209
13909SOL    HW246575   3.916   3.960   5.308
13910SOL     OW46576   5.356   5.101   3.805
13910SOL    HW146577   5.324   5.195   3.795
13910SOL    HW246578   5.280   5.038   3.793
13911SOL     OW46579   4.188   5.467   4.047
13911SOL    HW146580   4.221   5.506   4.133
13911SOL    HW246581   4.264   5.460   3.982
13912SOL     OW46582   5.124   3.831   4.150
13912SOL    HW146583   5.100   3.794   4.060
13912SOL    HW246584   5.223   3.847   4.154
13913SOL     OW46585   3.973   5.509   4.965
13913SOL    HW146586   4.030   5.444   5.015
13913SOL    HW246587   3.957   5.476   4.872
13914SOL     OW46588   4.664   5.422   4.628
13914SOL    HW146589   4.744   5.365   4.649
13914SOL    HW246590   4.615   5.382   4.551
13915SOL     OW46591   4.106   4.424   4.204
13915SOL    HW146592   4.151   4.334   4.201
13915SOL    HW246593   4.012   4.413   4.237
13916SOL     OW46594   5.271   3.946   5.453
13916SOL    HW146595   5.266   3.983   5.545
13916SOL    HW246596   5.199   3.877   5.441
13917SOL     OW46597   4.338   3.846   3.841
13917SOL    HW146598   4.436   3.824   3.848
13917SOL    HW246599   4.307   3.829   3.748
13918SOL     OW46600   4.505   3.988   5.473
13918SOL    HW146601   4.572   3.927   5.516
13918SOL    HW246602   4.432   4.007   5.538
13919SOL     OW46603   4.612   5.238   4.919
13919SOL    HW146604   4.589   5.213   4.825
13919SOL    HW246605   4.673   5.169   4.958
13920SOL     OW46606   5.075   4.314   5.157
13920SOL    HW146607   5.103   4.271   5.242
13920SOL    HW246608   5.100   4.410   5.158
13921SOL     OW46609   4.527   5.126   4.648
13921SOL    HW146610   4.617   5.140   4.606
13921SOL    HW246611   4.456   5.128   4.577
13922SOL     OW46612   4.646   4.227   4.623
13922SOL    HW146613   4.621   4.218   4.527
13922SOL    HW246614   4.694   4.145   4.654
13923SOL     OW46615   4.263   3.788   4.236
13923SOL    HW146616   4.182   3.789   4.294
13923SOL    HW246617   4.266   3.871   4.181
13924SOL     OW46618   5.158   4.912   3.765
13924SOL    HW146619   5.190   4.836   3.822
13924SOL    HW246620   5.066   4.939   3.795
13925SOL     OW46621   4.021   3.759   3.895
13925SOL    HW146622   4.070   3.843   3.874
13925SOL    HW246623   4.083   3.694   3.940
13926SOL     OW46624   4.659   3.960   4.204
13926SOL    HW146625   4.611   4.001   4.126
13926SOL    HW246626   4.758   3.958   4.185
13927SOL     OW46627   4.800   4.407   5.188
13927SOL    HW146628   4.720   4.346   5.191
13927SOL    HW246629   4.881   4.354   5.164
13928SOL     OW46630   4.951   5.294   4.517
13928SOL    HW146631   4.972   5.368   4.452
13928SOL    HW246632   5.019   5.294   4.590
13929SOL     OW46633   4.183   4.876   4.465
13929SOL    HW146634   4.112   4.849   4.530
13929SOL    HW246635   4.157   4.848   4.372
13930SOL     OW46636   4.995   5.521   4.315
13930SOL    HW146637   5.039   5.585   4.251
13930SOL    HW246638   4.945   5.573   4.385
13931SOL     OW46639   4.756   4.273   3.740
13931SOL    HW146640   4.715   4.355   3.701
13931SOL    HW246641   4.820   4.299   3.813
13932SOL     OW46642   3.802   4.280   5.110
13932SOL    HW146643   3.894   4.279   5.069
13932SOL    HW246644   3.796   4.354   5.177
13933SOL     OW46645   4.285   3.946   4.871
13933SOL    HW146646   4.323   3.862   4.908
13933SOL    HW246647   4.197   3.965   4.915
13934SOL     OW46648   4.590   4.178   4.366
13934SOL    HW146649   4.558   4.250   4.304
13934SOL    HW246650   4.614   4.097   4.313
13935SOL     OW46651   4.741   3.763   4.477
13935SOL    HW146652   4.669   3.768   4.408
13935SOL    HW246653   4.717   3.694   4.546
13936SOL     OW46654   5.153   4.897   4.591
13936SOL    HW146655   5.098   4.813   4.584
13936SOL    HW246656   5.179   4.926   4.499
13937SOL     OW46657   5.190   4.314   4.716
13937SOL    HW146658   5.160   4.219   4.723
13937SOL    HW246659   5.263   4.330   4.782
13938SOL     OW46660   5.581   4.557   4.101
13938SOL    HW146661   5.623   4.493   4.165
13938SOL    HW246662   5.543   4.506   4.023
13939SOL     OW46663   4.212   5.109   3.898
13939SOL    HW146664   4.125   5.094   3.945
13939SOL    HW246665   4.195   5.135   3.803
13940SOL     OW46666   5.388   5.004   4.381
13940SOL    HW146667   5.487   5.012   4.395
13940SOL    HW246668   5.343   5.088   4.412
13941SOL     OW46669   5.114   4.299   3.802
13941SOL    HW146670   5.060   4.278   3.883
13941SOL    HW246671   5.205   4.258   3.811
13942SOL     OW46672   4.251   3.980   4.052
13942SOL    HW146673   4.278   3.921   3.977
13942SOL    HW246674   4.251   4.075   4.021
13943SOL     OW46675   5.478   4.947   5.312
13943SOL    HW146676   5.569   4.908   5.299
13943SOL    HW246677   5.486   5.043   5.336
13944SOL     OW46678   4.788   5.071   5.064
13944SOL    HW146679   4.708   5.048   5.119
13944SOL    HW246680   4.871   5.045   5.113
13945SOL     OW46681   5.316   5.353   5.349
13945SOL    HW146682   5.343   5.387   5.259
13945SOL    HW246683   5.395   5.315   5.395
13946SOL     OW46684   4.835   4.919   4.824
13946SOL    HW146685   4.795   4.963   4.905
13946SOL    HW246686   4.794   4.956   4.741
13947SOL     OW46687   5.362   4.823   4.803
13947SOL    HW146688   5.367   4.904   4.862
13947SOL    HW246689   5.276   4.825   4.752
13948SOL     OW46690   4.639   3.813   5.126
13948SOL    HW146691   4.664   3.793   5.031
13948SOL    HW246692   4.711   3.869   5.168
13949SOL     OW46693   4.704   4.840   5.443
13949SOL    HW146694   4.605   4.846   5.453
13949SOL    HW246695   4.727   4.760   5.387
13950SOL     OW46696   4.429   4.774   4.092
13950SOL    HW146697   4.415   4.781   4.191
13950SOL    HW246698   4.513   4.723   4.074
13951SOL     OW46699   4.134   4.537   4.975
13951SOL    HW146700   4.220   4.549   5.025
13951SOL    HW246701   4.092   4.450   5.002
13952SOL     OW46702   4.998   4.110   4.986
13952SOL    HW146703   5.019   4.184   5.050
13952SOL    HW246704   4.909   4.127   4.943
13953SOL     OW46705   3.788   5.288   5.055
13953SOL    HW146706   3.742   5.370   5.021
13953SOL    HW246707   3.886   5.307   5.064
13954SOL     OW46708   4.091   4.824   4.225
13954SOL    HW146709   4.084   4.907   4.169
13954SOL    HW246710   4.095   4.744   4.165
13955SOL     OW46711   4.290   4.261   4.589
13955SOL    HW146712   4.302   4.327   4.515
13955SOL    HW246713   4.336   4.295   4.672
13956SOL     OW46714   4.976   5.072   4.112
13956SOL    HW146715   5.026   5.149   4.152
13956SOL    HW246716   4.881   5.074   4.144
13957SOL     OW46717   4.996   5.169   4.866
13957SOL    HW146718   5.043   5.182   4.953
13957SOL    HW246719   4.930   5.095   4.875
13958SOL     OW46720   5.306   4.363   4.196
13958SOL    HW146721   5.275   4.424   4.269
13958SOL    HW246722   5.356   4.415   4.127
13959SOL     OW46723   4.078   5.234   5.053
13959SOL    HW146724   4.057   5.190   4.966
13959SOL    HW246725   4.175   5.260   5.056
13960SOL     OW46726   4.126   4.475   5.322
13960SOL    HW146727   4.194   4.530   5.275
13960SOL    HW246728   4.166   4.387   5.349
13961SOL     OW46729   5.311   4.503   5.394
13961SOL    HW146730   5.219   4.541   5.389
13961SOL    HW246731   5.371   4.550   5.329
13962SOL     OW46732   4.737   3.829   5.494
13962SOL    HW146733   4.743   3.914   5.442
13962SOL    HW246734   4.769   3.753   5.437
13963SOL     OW46735   4.228   3.774   5.464
13963SOL    HW146736   4.186   3.717   5.394
13963SOL    HW246737   4.162   3.843   5.496
13964SOL     OW46738   4.297   4.594   4.753
13964SOL    HW146739   4.341   4.683   4.744
13964SOL    HW246740   4.234   4.594   4.830
13965SOL     OW46741   5.084   4.586   4.769
13965SOL    HW146742   5.009   4.586   4.703
13965SOL    HW246743   5.121   4.494   4.778
13966SOL     OW46744   4.031   3.937   4.955
13966SOL    HW146745   4.008   3.974   5.045
13966SOL    HW246746   4.001   3.842   4.949
13967SOL     OW46747   3.761   5.034   5.006
13967SOL    HW146748   3.814   4.985   5.074
13967SOL    HW246749   3.783   5.132   5.011
13968SOL     OW46750   4.456   4.358   4.788
13968SOL    HW146751   4.515   4.332   4.712
13968SOL    HW246752   4.428   4.454   4.777
13969SOL     OW46753   5.452   4.659   5.578
13969SOL    HW146754   5.406   4.652   5.489
13969SOL    HW246755   5.390   4.703   5.644
13970SOL     OW46756   4.031   3.787   4.342
13970SOL    HW146757   4.020   3.881   4.375
13970SOL    HW246758   4.026   3.724   4.419
13971SOL     OW46759   5.346   4.091   4.098
13971SOL    HW146760   5.348   4.015   4.162
13971SOL    HW246761   5.298   4.168   4.138
13972SOL     OW46762   4.747   4.490   4.690
13972SOL    HW146763   4.762   4.511   4.786
13972SOL    HW246764   4.717   4.395   4.681
13973SOL     OW46765   4.704   5.297   5.424
13973SOL    HW146766   4.684   5.341   5.336
13973SOL    HW246767   4.743   5.206   5.408
13974SOL     OW46768   5.583   5.242   5.329
13974SOL    HW146769   5.597   5.269   5.234
13974SOL    HW246770   5.666   5.264   5.382
13975SOL     OW46771   4.074   4.622   5.528
13975SOL    HW146772   4.150   4.666   5.576
13975SOL    HW246773   4.109   4.575   5.446
13976SOL     OW46774   5.264   3.998   3.849
13976SOL    HW146775   5.203   3.923   3.872
13976SOL    HW246776   5.286   4.050   3.932
13977SOL     OW46777   5.027   4.562   3.766
13977SOL    HW146778   5.061   4.469   3.781
13977SOL    HW246779   5.045   4.589   3.671
13978SOL     OW46780   4.792   5.057   4.573
13978SOL    HW146781   4.799   4.973   4.518
13978SOL    HW246782   4.854   5.126   4.537
13979SOL     OW46783   4.043   4.534   4.673
13979SOL    HW146784   4.136   4.570   4.678
13979SOL    HW246785   4.037   4.449   4.725
13980SOL     OW46786   4.063   4.233   4.730
13980SOL    HW146787   4.011   4.150   4.713
13980SOL    HW246788   4.140   4.238   4.666
13981SOL     OW46789   4.862   4.104   5.402
13981SOL    HW146790   4.817   4.167   5.466
13981SOL    HW246791   4.955   4.135   5.385
13982SOL     OW46792   4.884   3.931   5.201
13982SOL    HW146793   4.884   3.995   5.278
13982SOL    HW246794   4.912   3.979   5.118
13983SOL     OW46795   3.732   5.050   3.924
13983SOL    HW146796   3.639   5.071   3.893
13983SOL    HW246797   3.742   4.951   3.937
13984SOL     OW46798   3.812   5.525   4.651
13984SOL    HW146799   3.770   5.439   4.624
13984SOL    HW246800   3.906   5.528   4.617
13985SOL     OW46801   4.228   5.292   4.634
13985SOL    HW146802   4.294   5.366   4.643
13985SOL    HW246803   4.272   5.213   4.592
13986SOL     OW46804   4.726   4.520   4.962
13986SOL    HW146805   4.767   4.488   5.048
13986SOL    HW246806   4.630   4.493   4.959
13987SOL     OW46807   3.764   4.268   4.838
13987SOL    HW146808   3.849   4.235   4.797
13987SOL    HW246809   3.777   4.283   4.936
13988SOL     OW46810   3.913   4.244   5.446
13988SOL    HW146811   3.972   4.204   5.376
13988SOL    HW246812   3.855   4.315   5.405
13989SOL     OW46813   5.093   4.674   5.384
13989SOL    HW146814   5.132   4.763   5.404
13989SOL    HW246815   5.103   4.654   5.287
13990SOL     OW46816   4.539   4.296   4.049
13990SOL    HW146817   4.546   4.207   4.003
13990SOL    HW246818   4.445   4.330   4.041
13991SOL     OW46819   5.381   4.328   4.930
13991SOL    HW146820   5.343   4.259   4.992
13991SOL    HW246821   5.463   4.292   4.886
13992SOL     OW46822   3.976   5.288   5.468
13992SOL    HW146823   3.946   5.345   5.544
13992SOL    HW246824   3.969   5.191   5.494
13993SOL     OW46825   4.395   4.188   4.993
13993SOL    HW146826   4.361   4.099   4.963
13993SOL    HW246827   4.421   4.242   4.913
13994SOL     OW46828   4.197   4.224   3.915
13994SOL    HW146829   4.258   4.304   3.919
13994SOL    HW246830   4.102   4.255   3.922
13995SOL     OW46831   3.883   4.861   5.190
13995SOL    HW146832   3.905   4.800   5.266
13995SOL    HW246833   3.893   4.812   5.104
13996SOL     OW46834   5.071   4.783   4.958
13996SOL    HW146835   5.095   4.720   4.884
13996SOL    HW246836   4.981   4.823   4.940
13997SOL     OW46837   5.026   4.579   4.033
13997SOL    HW146838   4.940   4.548   4.075
13997SOL    HW246839   5.022   4.565   3.934
13998SOL     OW46840   5.483   5.471   4.878
13998SOL    HW146841   5.544   5.501   4.805
13998SOL    HW246842   5.445   5.382   4.856
13999SOL     OW46843   4.976   5.455   4.852
13999SOL    HW146844   5.060   5.460   4.798
13999SOL    HW246845   4.953   5.359   4.870
14000SOL     OW46846   3.807   4.982   4.746
14000SOL    HW146847   3.802   4.981   4.846
14000SOL    HW246848   3.724   4.941   4.708
14001SOL     OW46849   4.412   5.386   5.440
14001SOL    HW146850   4.356   5.467   5.449
14001SOL    HW246851   4.464   5.390   5.354
14002SOL     OW46852   5.450   3.859   4.247
14002SOL    HW146853   5.523   3.842   4.180
14002SOL    HW246854   5.419   3.772   4.285
14003SOL     OW46855   5.112   5.297   4.201
14003SOL    HW146856   5.179   5.309   4.127
14003SOL    HW246857   5.072   5.386   4.224
14004SOL     OW46858   3.854   5.518   5.575
14004SOL    HW146859   3.813   5.444   5.628
14004SOL    HW246860   3.918   5.569   5.633
14005SOL     OW46861   5.004   4.651   4.396
14005SOL    HW146862   5.064   4.570   4.398
14005SOL    HW246863   5.044   4.720   4.336
14006SOL     OW46864   4.554   4.997   5.146
14006SOL    HW146865   4.549   5.030   5.241
14006SOL    HW246866   4.468   5.016   5.100
14007SOL     OW46867   4.396   5.340   3.878
14007SOL    HW146868   4.405   5.350   3.779
14007SOL    HW246869   4.356   5.251   3.899
14008SOL     OW46870   5.374   5.444   5.118
14008SOL    HW146871   5.427   5.454   5.034
14008SOL    HW246872   5.347   5.534   5.152
14009SOL     OW46873   5.565   3.899   4.687
14009SOL    HW146874   5.604   3.814   4.651
14009SOL    HW246875   5.467   3.901   4.668
14010SOL     OW46876   3.987   4.050   4.444
14010SOL    HW146877   3.908   4.101   4.410
14010SOL    HW246878   3.978   4.035   4.542
14011SOL     OW46879   4.918   5.336   3.755
14011SOL    HW146880   4.924   5.243   3.792
14011SOL    HW246881   4.859   5.336   3.675
14012SOL     OW46882   4.546   4.726   5.096
14012SOL    HW146883   4.586   4.725   5.004
14012SOL    HW246884   4.556   4.818   5.136
14013SOL     OW46885   4.640   4.634   4.015
14013SOL    HW146886   4.703   4.672   3.947
14013SOL    HW246887   4.680   4.551   4.054
14014SOL     OW46888   5.228   5.331   3.768
14014SOL    HW146889   5.136   5.368   3.775
14014SOL    HW246890   5.266   5.351   3.678
14015SOL     OW46891   4.096   5.012   5.214
14015SOL    HW146892   4.083   5.105   5.180
14015SOL    HW246893   4.012   4.960   5.201
14016SOL     OW46894   5.338   5.016   5.013
14016SOL    HW146895   5.398   5.019   5.093
14016SOL    HW246896   5.263   5.080   5.026
14017SOL     OW46897   4.763   4.822   4.420
14017SOL    HW146898   4.693   4.775   4.474
14017SOL    HW246899   4.822   4.754   4.377
14018SOL     OW46900   4.738   3.960   4.695
14018SOL    HW146901   4.730   3.924   4.602
14018SOL    HW246902   4.736   3.884   4.760
14019SOL     OW46903   4.314   5.211   4.215
14019SOL    HW146904   4.356   5.153   4.145
14019SOL    HW246905   4.270   5.290   4.171
14020SOL     OW46906   5.433   4.109   5.105
14020SOL    HW146907   5.506   4.178   5.109
14020SOL    HW246908   5.461   4.034   5.046
14021SOL     OW46909   3.979   5.072   4.014
14021SOL    HW146910   3.883   5.073   3.987
14021SOL    HW246911   3.991   5.125   4.098
14022SOL     OW46912   3.829   4.737   5.450
14022SOL    HW146913   3.752   4.704   5.504
14022SOL    HW246914   3.914   4.707   5.492
14023SOL     OW46915   4.396   3.927   5.213
14023SOL    HW146916   4.486   3.911   5.173
14023SOL    HW246917   4.404   3.932   5.312
14024SOL     OW46918   3.799   4.069   3.757
14024SOL    HW146919   3.707   4.041   3.728
14024SOL    HW246920   3.830   4.146   3.701
14025SOL     OW46921   5.164   4.580   5.122
14025SOL    HW146922   5.107   4.632   5.059
14025SOL    HW246923   5.260   4.592   5.098
14026SOL     OW46924   3.796   3.890   4.042
14026SOL    HW146925   3.779   3.973   3.988
14026SOL    HW246926   3.886   3.853   4.020
14027SOL     OW46927   4.907   5.059   3.843
14027SOL    HW146928   4.808   5.048   3.845
14027SOL    HW246929   4.941   5.074   3.936
14028SOL     OW46930   4.337   4.566   5.155
14028SOL    HW146931   4.393   4.647   5.138
14028SOL    HW246932   4.396   4.486   5.158
14029SOL     OW46933   5.217   5.491   4.683
14029SOL    HW146934   5.250   5.555   4.614
14029SOL    HW246935   5.283   5.485   4.758
14030SOL     OW46936   4.440   4.289   5.432
14030SOL    HW146937   4.459   4.354   5.506
14030SOL    HW246938   4.500   4.209   5.441
14031SOL     OW46939   5.174   4.944   5.357
14031SOL    HW146940   5.165   4.934   5.456
14031SOL    HW246941   5.270   4.937   5.331
14032SOL     OW46942   4.114   5.465   5.284
14032SOL    HW146943   4.023   5.506   5.282
14032SOL    HW246944   4.107   5.371   5.316
14033SOL     OW46945   5.398   4.607   4.978
14033SOL    HW146946   5.371   4.518   4.941
14033SOL    HW246947   5.399   4.675   4.905
14034SOL     OW46948   4.949   4.049   4.173
14034SOL    HW146949   5.014   3.975   4.162
14034SOL    HW246950   4.969   4.099   4.257
14035SOL     OW46951   4.318   4.469   4.376
14035SOL    HW146952   4.368   4.554   4.357
14035SOL    HW246953   4.230   4.471   4.328
14036SOL     OW46954   5.501   4.066   5.366
14036SOL    HW146955   5.484   4.097   5.272
14036SOL    HW246956   5.417   4.029   5.404
14037SOL     OW46957   5.454   4.658   5.241
14037SOL    HW146958   5.492   4.749   5.256
14037SOL    HW246959   5.446   4.641   5.142
14038SOL     OW46960   4.583   5.098   3.740
14038SOL    HW146961   4.537   5.113   3.828
14038SOL    HW246962   4.627   5.183   3.710
14039SOL     OW46963   4.385   5.514   4.677
14039SOL    HW146964   4.339   5.602   4.664
14039SOL    HW246965   4.484   5.526   4.670
14040SOL     OW46966   4.583   4.680   4.585
14040SOL    HW146967   4.637   4.611   4.633
14040SOL    HW246968   4.551   4.749   4.651
14041SOL     OW46969   4.807   4.708   3.811
14041SOL    HW146970   4.784   4.761   3.729
14041SOL    HW246971   4.888   4.652   3.792
14042SOL     OW46972   5.585   5.293   4.575
14042SOL    HW146973   5.514   5.281   4.505
14042SOL    HW246974   5.586   5.214   4.635
14043SOL     OW46975   3.945   5.038   5.568
14043SOL    HW146976   3.880   4.965   5.547
14043SOL    HW246977   3.949   5.052   5.666
14044SOL     OW46978   3.803   4.964   4.377
14044SOL    HW146979   3.802   4.917   4.465
14044SOL    HW246980   3.885   4.936   4.326
14045SOL     OW46981   4.396   5.115   5.348
14045SOL    HW146982   4.318   5.065   5.386
14045SOL    HW246983   4.393   5.210   5.379
14046SOL     OW46984   5.548   3.916   4.951
14046SOL    HW146985   5.544   3.826   4.995
14046SOL    HW246986   5.551   3.905   4.852
14047SOL     OW46987   4.152   4.148   4.244
14047SOL    HW146988   4.182   4.076   4.182
14047SOL    HW246989   4.113   4.108   4.327
14048SOL     OW46990   5.429   5.211   4.828
14048SOL    HW146991   5.336   5.186   4.801
14048SOL    HW246992   5.455   5.161   4.910
14049SOL     OW46993   4.041   4.271   5.004
14049SOL    HW146994   4.079   4.212   5.076
14049SOL    HW246995   4.081   4.245   4.916
14050SOL     OW46996   4.536   5.310   4.411
14050SOL    HW146997   4.568   5.320   4.317
14050SOL    HW246998   4.457   5.248   4.413
14051SOL     OW46999   5.148   3.938   4.836
14051SOL    HW147000   5.200   3.873   4.891
14051SOL    HW247001   5.099   4.001   4.897
14052SOL     OW47002   4.725   3.758   4.878
14052SOL    HW147003   4.662   3.686   4.847
14052SOL    HW247004   4.818   3.722   4.878
14053SOL     OW47005   4.494   5.054   4.025
14053SOL    HW147006   4.448   4.967   4.042
14053SOL    HW247007   4.585   5.051   4.066
14054SOL     OW47008   4.342   5.291   5.008
14054SOL    HW147009   4.337   5.373   5.065
14054SOL    HW247010   4.431   5.288   4.963
14055SOL     OW47011   5.076   3.776   3.892
14055SOL    HW147012   5.111   3.735   3.808
14055SOL    HW247013   4.986   3.738   3.912
14056SOL     OW47014   5.024   4.177   4.415
14056SOL    HW147015   4.965   4.257   4.419
14056SOL    HW247016   5.039   4.142   4.508
14057SOL     OW47017   5.317   3.945   4.606
14057SOL    HW147018   5.233   3.944   4.660
14057SOL    HW247019   5.319   4.028   4.550
14058SOL     OW47020   3.763   4.801   4.024
14058SOL    HW147021   3.862   4.790   4.015
14058SOL    HW247022   3.723   4.715   4.056
14059SOL     OW47023   4.599   5.370   4.061
14059SOL    HW147024   4.522   5.335   4.007
14059SOL    HW247025   4.567   5.441   4.123
14060SOL     OW47026   3.954   4.352   5.699
14060SOL    HW147027   3.861   4.350   5.736
14060SOL    HW247028   3.955   4.313   5.607
14061SOL     OW47029   3.949   3.999   6.582
14061SOL    HW147030   3.984   3.982   6.674
14061SOL    HW247031   3.861   3.954   6.570
14062SOL     OW47032   3.743   4.092   6.233
14062SOL    HW147033   3.661   4.135   6.272
14062SOL    HW247034   3.715   4.019   6.170
14063SOL     OW47035   4.293   4.999   6.751
14063SOL    HW147036   4.200   4.992   6.714
14063SOL    HW247037   4.304   5.088   6.795
14064SOL     OW47038   5.279   5.235   6.289
14064SOL    HW147039   5.222   5.219   6.370
14064SOL    HW247040   5.220   5.245   6.209
14065SOL     OW47041   4.859   4.427   6.303
14065SOL    HW147042   4.916   4.505   6.278
14065SOL    HW247043   4.799   4.453   6.379
14066SOL     OW47044   5.479   4.331   5.817
14066SOL    HW147045   5.467   4.318   5.718
14066SOL    HW247046   5.449   4.250   5.866
14067SOL     OW47047   4.492   4.868   6.609
14067SOL    HW147048   4.414   4.885   6.669
14067SOL    HW247049   4.526   4.955   6.573
14068SOL     OW47050   4.574   4.522   7.409
14068SOL    HW147051   4.570   4.598   7.474
14068SOL    HW247052   4.596   4.558   7.318
14069SOL     OW47053   4.409   4.736   6.251
14069SOL    HW147054   4.478   4.720   6.321
14069SOL    HW247055   4.336   4.793   6.289
14070SOL     OW47056   4.059   5.159   6.647
14070SOL    HW147057   3.981   5.128   6.594
14070SOL    HW247058   4.117   5.217   6.590
14071SOL     OW47059   5.184   5.229   6.925
14071SOL    HW147060   5.208   5.323   6.951
14071SOL    HW247061   5.168   5.175   7.007
14072SOL     OW47062   4.162   4.116   7.085
14072SOL    HW147063   4.244   4.060   7.094
14072SOL    HW247064   4.081   4.058   7.089
14073SOL     OW47065   5.327   4.171   6.323
14073SOL    HW147066   5.253   4.217   6.273
14073SOL    HW247067   5.378   4.239   6.376
14074SOL     OW47068   3.955   5.437   6.069
14074SOL    HW147069   3.989   5.514   6.123
14074SOL    HW247070   3.999   5.437   5.979
14075SOL     OW47071   4.851   5.065   7.276
14075SOL    HW147072   4.898   5.065   7.364
14075SOL    HW247073   4.803   4.978   7.265
14076SOL     OW47074   3.954   5.158   6.124
14076SOL    HW147075   3.928   5.254   6.124
14076SOL    HW247076   3.883   5.104   6.169
14077SOL     OW47077   3.964   4.815   6.472
14077SOL    HW147078   3.978   4.731   6.524
14077SOL    HW247079   3.909   4.879   6.527
14078SOL     OW47080   4.344   5.510   7.025
14078SOL    HW147081   4.252   5.493   7.060
14078SOL    HW247082   4.372   5.602   7.051
14079SOL     OW47083   4.330   4.688   5.709
14079SOL    HW147084   4.337   4.772   5.655
14079SOL    HW247085   4.376   4.701   5.797
14080SOL     OW47086   5.318   3.838   7.066
14080SOL    HW147087   5.300   3.905   6.994
14080SOL    HW247088   5.315   3.884   7.155
14081SOL     OW47089   3.846   4.367   6.149
14081SOL    HW147090   3.801   4.279   6.166
14081SOL    HW247091   3.845   4.421   6.233
14082SOL     OW47092   5.566   5.491   5.945
14082SOL    HW147093   5.620   5.462   6.025
14082SOL    HW247094   5.596   5.581   5.916
14083SOL     OW47095   3.751   5.320   5.703
14083SOL    HW147096   3.732   5.224   5.724
14083SOL    HW247097   3.718   5.378   5.778
14084SOL     OW47098   5.413   4.646   6.198
14084SOL    HW147099   5.508   4.617   6.206
14084SOL    HW247100   5.405   4.711   6.123
14085SOL     OW47101   5.365   4.832   6.018
14085SOL    HW147102   5.451   4.834   5.966
14085SOL    HW247103   5.379   4.879   6.106
14086SOL     OW47104   3.837   4.461   7.183
14086SOL    HW147105   3.925   4.448   7.228
14086SOL    HW247106   3.824   4.558   7.161
14087SOL     OW47107   4.337   5.089   6.312
14087SOL    HW147108   4.288   5.002   6.321
14087SOL    HW247109   4.314   5.132   6.225
14088SOL     OW47110   5.017   4.952   7.009
14088SOL    HW147111   5.054   4.879   6.951
14088SOL    HW247112   5.069   4.957   7.094
14089SOL     OW47113   4.533   3.728   6.088
14089SOL    HW147114   4.573   3.819   6.079
14089SOL    HW247115   4.433   3.736   6.094
14090SOL     OW47116   3.921   4.700   6.850
14090SOL    HW147117   4.010   4.655   6.836
14090SOL    HW247118   3.848   4.635   6.831
14091SOL     OW47119   5.249   4.723   5.776
14091SOL    HW147120   5.186   4.647   5.789
14091SOL    HW247121   5.297   4.741   5.862
14092SOL     OW47122   4.911   5.516   7.202
14092SOL    HW147123   4.935   5.576   7.126
14092SOL    HW247124   4.918   5.421   7.172
14093SOL     OW47125   4.041   3.975   7.387
14093SOL    HW147126   4.112   4.046   7.393
14093SOL    HW247127   3.953   4.014   7.415
14094SOL     OW47128   5.190   5.141   6.539
14094SOL    HW147129   5.131   5.147   6.619
14094SOL    HW247130   5.175   5.053   6.493
14095SOL     OW47131   5.391   5.438   6.158
14095SOL    HW147132   5.350   5.415   6.070
14095SOL    HW247133   5.373   5.364   6.223
14096SOL     OW47134   4.322   4.453   5.856
14096SOL    HW147135   4.346   4.522   5.788
14096SOL    HW247136   4.244   4.486   5.910
14097SOL     OW47137   5.005   4.069   6.530
14097SOL    HW147138   4.919   4.019   6.517
14097SOL    HW247139   5.067   4.015   6.586
14098SOL     OW47140   5.300   5.386   5.893
14098SOL    HW147141   5.389   5.432   5.896
14098SOL    HW247142   5.279   5.362   5.798
14099SOL     OW47143   4.531   4.329   7.051
14099SOL    HW147144   4.484   4.326   7.140
14099SOL    HW247145   4.480   4.274   6.985
14100SOL     OW47146   5.118   4.193   7.260
14100SOL    HW147147   5.098   4.236   7.348
14100SOL    HW247148   5.196   4.131   7.269
14101SOL     OW47149   4.697   4.614   7.158
14101SOL    HW147150   4.743   4.530   7.129
14101SOL    HW247151   4.641   4.648   7.083
14102SOL     OW47152   4.715   4.134   6.828
14102SOL    HW147153   4.638   4.168   6.882
14102SOL    HW247154   4.681   4.083   6.749
14103SOL     OW47155   4.765   4.425   6.015
14103SOL    HW147156   4.791   4.421   6.111
14103SOL    HW247157   4.680   4.374   6.001
14104SOL     OW47158   3.800   4.535   6.375
14104SOL    HW147159   3.899   4.523   6.384
14104SOL    HW247160   3.776   4.630   6.396
14105SOL     OW47161   3.854   5.545   7.157
14105SOL    HW147162   3.844   5.530   7.256
14105SOL    HW247163   3.768   5.581   7.121
14106SOL     OW47164   4.589   4.072   5.781
14106SOL    HW147165   4.648   4.135   5.732
14106SOL    HW247166   4.608   3.978   5.752
14107SOL     OW47167   5.443   4.309   7.417
14107SOL    HW147168   5.417   4.398   7.381
14107SOL    HW247169   5.441   4.241   7.344
14108SOL     OW47170   5.086   4.868   6.131
14108SOL    HW147171   5.169   4.839   6.083
14108SOL    HW247172   5.037   4.935   6.075
14109SOL     OW47173   4.274   3.920   6.471
14109SOL    HW147174   4.269   3.915   6.571
14109SOL    HW247175   4.276   4.016   6.442
14110SOL     OW47176   4.732   5.180   6.063
14110SOL    HW147177   4.686   5.252   6.011
14110SOL    HW247178   4.728   5.200   6.161
14111SOL     OW47179   5.519   4.790   6.459
14111SOL    HW147180   5.457   4.775   6.383
14111SOL    HW247181   5.467   4.801   6.544
14112SOL     OW47182   4.951   5.274   7.092
14112SOL    HW147183   4.957   5.197   7.156
14112SOL    HW247184   4.899   5.248   7.012
14113SOL     OW47185   4.045   4.667   5.828
14113SOL    HW147186   4.127   4.706   5.786
14113SOL    HW247187   4.018   4.585   5.779
14114SOL     OW47188   5.182   4.459   6.314
14114SOL    HW147189   5.177   4.394   6.389
14114SOL    HW247190   5.262   4.518   6.327
14115SOL     OW47191   4.185   4.990   7.313
14115SOL    HW147192   4.135   4.991   7.227
14115SOL    HW247193   4.122   4.972   7.389
14116SOL     OW47194   4.835   5.500   5.823
14116SOL    HW147195   4.775   5.438   5.873
14116SOL    HW247196   4.866   5.456   5.738
14117SOL     OW47197   3.926   4.009   7.084
14117SOL    HW147198   3.846   4.069   7.071
14117SOL    HW247199   3.916   3.960   7.170
14118SOL     OW47200   5.356   5.101   5.667
14118SOL    HW147201   5.324   5.195   5.657
14118SOL    HW247202   5.280   5.038   5.655
14119SOL     OW47203   4.188   5.467   5.909
14119SOL    HW147204   4.221   5.506   5.995
14119SOL    HW247205   4.264   5.460   5.844
14120SOL     OW47206   5.124   3.831   6.012
14120SOL    HW147207   5.100   3.794   5.922
14120SOL    HW247208   5.223   3.847   6.016
14121SOL     OW47209   3.973   5.509   6.827
14121SOL    HW147210   4.030   5.444   6.877
14121SOL    HW247211   3.957   5.476   6.734
14122SOL     OW47212   4.664   5.422   6.490
14122SOL    HW147213   4.744   5.365   6.511
14122SOL    HW247214   4.615   5.382   6.413
14123SOL     OW47215   4.106   4.424   6.066
14123SOL    HW147216   4.151   4.334   6.063
14123SOL    HW247217   4.012   4.413   6.099
14124SOL     OW47218   4.338   3.846   5.703
14124SOL    HW147219   4.436   3.824   5.710
14124SOL    HW247220   4.307   3.829   5.610
14125SOL     OW47221   4.505   3.988   7.335
14125SOL    HW147222   4.572   3.927   7.378
14125SOL    HW247223   4.432   4.007   7.400
14126SOL     OW47224   4.612   5.238   6.781
14126SOL    HW147225   4.589   5.213   6.687
14126SOL    HW247226   4.673   5.169   6.820
14127SOL     OW47227   5.075   4.314   7.019
14127SOL    HW147228   5.103   4.271   7.104
14127SOL    HW247229   5.100   4.410   7.020
14128SOL     OW47230   4.527   5.126   6.510
14128SOL    HW147231   4.617   5.140   6.468
14128SOL    HW247232   4.456   5.128   6.439
14129SOL     OW47233   4.646   4.227   6.485
14129SOL    HW147234   4.621   4.218   6.389
14129SOL    HW247235   4.694   4.145   6.516
14130SOL     OW47236   4.263   3.788   6.098
14130SOL    HW147237   4.182   3.789   6.156
14130SOL    HW247238   4.266   3.871   6.043
14131SOL     OW47239   5.158   4.912   5.627
14131SOL    HW147240   5.190   4.836   5.684
14131SOL    HW247241   5.066   4.939   5.657
14132SOL     OW47242   4.021   3.759   5.757
14132SOL    HW147243   4.070   3.843   5.736
14132SOL    HW247244   4.083   3.694   5.802
14133SOL     OW47245   4.659   3.960   6.066
14133SOL    HW147246   4.611   4.001   5.988
14133SOL    HW247247   4.758   3.958   6.047
14134SOL     OW47248   4.800   4.407   7.050
14134SOL    HW147249   4.720   4.346   7.053
14134SOL    HW247250   4.881   4.354   7.026
14135SOL     OW47251   4.951   5.294   6.379
14135SOL    HW147252   4.972   5.368   6.314
14135SOL    HW247253   5.019   5.294   6.452
14136SOL     OW47254   4.183   4.876   6.327
14136SOL    HW147255   4.112   4.849   6.392
14136SOL    HW247256   4.157   4.848   6.234
14137SOL     OW47257   4.995   5.521   6.177
14137SOL    HW147258   5.039   5.585   6.113
14137SOL    HW247259   4.945   5.573   6.247
14138SOL     OW47260   4.756   4.273   5.602
14138SOL    HW147261   4.715   4.355   5.563
14138SOL    HW247262   4.820   4.299   5.675
14139SOL     OW47263   3.802   4.280   6.972
14139SOL    HW147264   3.894   4.279   6.931
14139SOL    HW247265   3.796   4.354   7.039
14140SOL     OW47266   4.285   3.946   6.733
14140SOL    HW147267   4.323   3.862   6.770
14140SOL    HW247268   4.197   3.965   6.777
14141SOL     OW47269   4.590   4.178   6.228
14141SOL    HW147270   4.558   4.250   6.166
14141SOL    HW247271   4.614   4.097   6.175
14142SOL     OW47272   4.741   3.763   6.339
14142SOL    HW147273   4.669   3.768   6.270
14142SOL    HW247274   4.717   3.694   6.408
14143SOL     OW47275   5.153   4.897   6.453
14143SOL    HW147276   5.098   4.813   6.446
14143SOL    HW247277   5.179   4.926   6.361
14144SOL     OW47278   5.190   4.314   6.578
14144SOL    HW147279   5.160   4.219   6.585
14144SOL    HW247280   5.263   4.330   6.644
14145SOL     OW47281   5.581   4.557   5.963
14145SOL    HW147282   5.623   4.493   6.027
14145SOL    HW247283   5.543   4.506   5.885
14146SOL     OW47284   4.212   5.109   5.760
14146SOL    HW147285   4.125   5.094   5.807
14146SOL    HW247286   4.195   5.135   5.665
14147SOL     OW47287   5.388   5.004   6.243
14147SOL    HW147288   5.487   5.012   6.257
14147SOL    HW247289   5.343   5.088   6.274
14148SOL     OW47290   5.114   4.299   5.664
14148SOL    HW147291   5.060   4.278   5.745
14148SOL    HW247292   5.205   4.258   5.673
14149SOL     OW47293   4.251   3.980   5.914
14149SOL    HW147294   4.278   3.921   5.839
14149SOL    HW247295   4.251   4.075   5.883
14150SOL     OW47296   5.478   4.947   7.174
14150SOL    HW147297   5.569   4.908   7.161
14150SOL    HW247298   5.486   5.043   7.198
14151SOL     OW47299   4.788   5.071   6.926
14151SOL    HW147300   4.708   5.048   6.981
14151SOL    HW247301   4.871   5.045   6.975
14152SOL     OW47302   5.316   5.353   7.211
14152SOL    HW147303   5.343   5.387   7.121
14152SOL    HW247304   5.395   5.315   7.257
14153SOL     OW47305   4.835   4.919   6.686
14153SOL    HW147306   4.795   4.963   6.767
14153SOL    HW247307   4.794   4.956   6.603
14154SOL     OW47308   5.362   4.823   6.665
14154SOL    HW147309   5.367   4.904   6.724
14154SOL    HW247310   5.276   4.825   6.614
14155SOL     OW47311   4.639   3.813   6.988
14155SOL    HW147312   4.664   3.793   6.893
14155SOL    HW247313   4.711   3.869   7.030
14156SOL     OW47314   4.704   4.840   7.305
14156SOL    HW147315   4.605   4.846   7.315
14156SOL    HW247316   4.727   4.760   7.249
14157SOL     OW47317   4.429   4.774   5.954
14157SOL    HW147318   4.415   4.781   6.053
14157SOL    HW247319   4.513   4.723   5.936
14158SOL     OW47320   4.134   4.537   6.837
14158SOL    HW147321   4.220   4.549   6.887
14158SOL    HW247322   4.092   4.450   6.864
14159SOL     OW47323   4.998   4.110   6.848
14159SOL    HW147324   5.019   4.184   6.912
14159SOL    HW247325   4.909   4.127   6.805
14160SOL     OW47326   3.788   5.288   6.917
14160SOL    HW147327   3.742   5.370   6.883
14160SOL    HW247328   3.886   5.307   6.926
14161SOL     OW47329   4.091   4.824   6.087
14161SOL    HW147330   4.084   4.907   6.031
14161SOL    HW247331   4.095   4.744   6.027
14162SOL     OW47332   4.290   4.261   6.451
14162SOL    HW147333   4.302   4.327   6.377
14162SOL    HW247334   4.336   4.295   6.534
14163SOL     OW47335   4.976   5.072   5.974
14163SOL    HW147336   5.026   5.149   6.014
14163SOL    HW247337   4.881   5.074   6.006
14164SOL     OW47338   4.996   5.169   6.728
14164SOL    HW147339   5.043   5.182   6.815
14164SOL    HW247340   4.930   5.095   6.737
14165SOL     OW47341   5.306   4.363   6.058
14165SOL    HW147342   5.275   4.424   6.131
14165SOL    HW247343   5.356   4.415   5.989
14166SOL     OW47344   4.078   5.234   6.915
14166SOL    HW147345   4.057   5.190   6.828
14166SOL    HW247346   4.175   5.260   6.918
14167SOL     OW47347   4.126   4.475   7.184
14167SOL    HW147348   4.194   4.530   7.137
14167SOL    HW247349   4.166   4.387   7.211
14168SOL     OW47350   5.311   4.503   7.256
14168SOL    HW147351   5.219   4.541   7.251
14168SOL    HW247352   5.371   4.550   7.191
14169SOL     OW47353   4.737   3.829   7.356
14169SOL    HW147354   4.743   3.914   7.304
14169SOL    HW247355   4.769   3.753   7.299
14170SOL     OW47356   4.228   3.774   7.326
14170SOL    HW147357   4.186   3.717   7.256
14170SOL    HW247358   4.162   3.843   7.358
14171SOL     OW47359   4.297   4.594   6.615
14171SOL    HW147360   4.341   4.683   6.606
14171SOL    HW247361   4.234   4.594   6.692
14172SOL     OW47362   5.084   4.586   6.631
14172SOL    HW147363   5.009   4.586   6.565
14172SOL    HW247364   5.121   4.494   6.640
14173SOL     OW47365   4.933   4.249   5.861
14173SOL    HW147366   4.946   4.165   5.915
14173SOL    HW247367   4.904   4.323   5.921
14174SOL     OW47368   4.031   3.937   6.817
14174SOL    HW147369   4.008   3.974   6.907
14174SOL    HW247370   4.001   3.842   6.811
14175SOL     OW47371   3.761   5.034   6.868
14175SOL    HW147372   3.814   4.985   6.936
14175SOL    HW247373   3.783   5.132   6.873
14176SOL     OW47374   4.456   4.358   6.650
14176SOL    HW147375   4.515   4.332   6.574
14176SOL    HW247376   4.428   4.454   6.639
14177SOL     OW47377   5.452   4.659   7.440
14177SOL    HW147378   5.406   4.652   7.351
14177SOL    HW247379   5.390   4.703   7.506
14178SOL     OW47380   4.031   3.787   6.204
14178SOL    HW147381   4.020   3.881   6.237
14178SOL    HW247382   4.026   3.724   6.281
14179SOL     OW47383   5.346   4.091   5.960
14179SOL    HW147384   5.348   4.015   6.024
14179SOL    HW247385   5.298   4.168   6.000
14180SOL     OW47386   4.747   4.490   6.552
14180SOL    HW147387   4.762   4.511   6.648
14180SOL    HW247388   4.717   4.395   6.543
14181SOL     OW47389   4.704   5.297   7.286
14181SOL    HW147390   4.684   5.341   7.198
14181SOL    HW247391   4.743   5.206   7.270
14182SOL     OW47392   5.583   5.242   7.191
14182SOL    HW147393   5.597   5.269   7.096
14182SOL    HW247394   5.666   5.264   7.244
14183SOL     OW47395   4.074   4.622   7.390
14183SOL    HW147396   4.150   4.666   7.438
14183SOL    HW247397   4.109   4.575   7.308
14184SOL     OW47398   5.264   3.998   5.711
14184SOL    HW147399   5.203   3.923   5.734
14184SOL    HW247400   5.286   4.050   5.794
14185SOL     OW47401   5.027   4.562   5.628
14185SOL    HW147402   5.061   4.469   5.643
14185SOL    HW247403   5.045   4.589   5.533
14186SOL     OW47404   4.792   5.057   6.435
14186SOL    HW147405   4.799   4.973   6.380
14186SOL    HW247406   4.854   5.126   6.399
14187SOL     OW47407   4.043   4.534   6.535
14187SOL    HW147408   4.136   4.570   6.540
14187SOL    HW247409   4.037   4.449   6.587
14188SOL     OW47410   4.063   4.233   6.592
14188SOL    HW147411   4.011   4.150   6.575
14188SOL    HW247412   4.140   4.238   6.528
14189SOL     OW47413   4.862   4.104   7.264
14189SOL    HW147414   4.817   4.167   7.328
14189SOL    HW247415   4.955   4.135   7.247
14190SOL     OW47416   4.884   3.931   7.063
14190SOL    HW147417   4.884   3.995   7.140
14190SOL    HW247418   4.912   3.979   6.980
14191SOL     OW47419   3.732   5.050   5.786
14191SOL    HW147420   3.639   5.071   5.755
14191SOL    HW247421   3.742   4.951   5.799
14192SOL     OW47422   3.812   5.525   6.513
14192SOL    HW147423   3.770   5.439   6.486
14192SOL    HW247424   3.906   5.528   6.479
14193SOL     OW47425   4.228   5.292   6.496
14193SOL    HW147426   4.294   5.366   6.505
14193SOL    HW247427   4.272   5.213   6.454
14194SOL     OW47428   4.726   4.520   6.824
14194SOL    HW147429   4.767   4.488   6.910
14194SOL    HW247430   4.630   4.493   6.821
14195SOL     OW47431   3.764   4.268   6.700
14195SOL    HW147432   3.849   4.235   6.659
14195SOL    HW247433   3.777   4.283   6.798
14196SOL     OW47434   3.913   4.244   7.308
14196SOL    HW147435   3.972   4.204   7.238
14196SOL    HW247436   3.855   4.315   7.267
14197SOL     OW47437   5.093   4.674   7.246
14197SOL    HW147438   5.132   4.763   7.266
14197SOL    HW247439   5.103   4.654   7.149
14198SOL     OW47440   4.539   4.296   5.911
14198SOL    HW147441   4.546   4.207   5.865
14198SOL    HW247442   4.445   4.330   5.903
14199SOL     OW47443   5.381   4.328   6.792
14199SOL    HW147444   5.343   4.259   6.854
14199SOL    HW247445   5.463   4.292   6.748
14200SOL     OW47446   3.976   5.288   7.330
14200SOL    HW147447   3.946   5.345   7.406
14200SOL    HW247448   3.969   5.191   7.356
14201SOL     OW47449   4.395   4.188   6.855
14201SOL    HW147450   4.361   4.099   6.825
14201SOL    HW247451   4.421   4.242   6.775
14202SOL     OW47452   4.654   5.402   7.051
14202SOL    HW147453   4.630   5.384   6.956
14202SOL    HW247454   4.684   5.496   7.061
14203SOL     OW47455   4.197   4.224   5.777
14203SOL    HW147456   4.258   4.304   5.781
14203SOL    HW247457   4.102   4.255   5.784
14204SOL     OW47458   3.883   4.861   7.052
14204SOL    HW147459   3.905   4.800   7.128
14204SOL    HW247460   3.893   4.812   6.966
14205SOL     OW47461   5.026   4.579   5.895
14205SOL    HW147462   4.940   4.548   5.937
14205SOL    HW247463   5.022   4.565   5.796
14206SOL     OW47464   5.483   5.471   6.740
14206SOL    HW147465   5.544   5.501   6.667
14206SOL    HW247466   5.445   5.382   6.718
14207SOL     OW47467   4.976   5.455   6.714
14207SOL    HW147468   5.060   5.460   6.660
14207SOL    HW247469   4.953   5.359   6.732
14208SOL     OW47470   3.807   4.982   6.608
14208SOL    HW147471   3.802   4.981   6.708
14208SOL    HW247472   3.724   4.941   6.570
14209SOL     OW47473   4.412   5.386   7.302
14209SOL    HW147474   4.356   5.467   7.311
14209SOL    HW247475   4.464   5.390   7.216
14210SOL     OW47476   5.450   3.859   6.109
14210SOL    HW147477   5.523   3.842   6.042
14210SOL    HW247478   5.419   3.772   6.147
14211SOL     OW47479   5.112   5.297   6.063
14211SOL    HW147480   5.179   5.309   5.989
14211SOL    HW247481   5.072   5.386   6.086
14212SOL     OW47482   3.854   5.518   7.437
14212SOL    HW147483   3.813   5.444   7.490
14212SOL    HW247484   3.918   5.569   7.495
14213SOL     OW47485   5.004   4.651   6.258
14213SOL    HW147486   5.064   4.570   6.260
14213SOL    HW247487   5.044   4.720   6.198
14214SOL     OW47488   4.554   4.997   7.008
14214SOL    HW147489   4.549   5.030   7.103
14214SOL    HW247490   4.468   5.016   6.962
14215SOL     OW47491   4.396   5.340   5.740
14215SOL    HW147492   4.405   5.350   5.641
14215SOL    HW247493   4.356   5.251   5.761
14216SOL     OW47494   5.374   5.444   6.980
14216SOL    HW147495   5.427   5.454   6.896
14216SOL    HW247496   5.347   5.534   7.014
14217SOL     OW47497   5.565   3.899   6.549
14217SOL    HW147498   5.604   3.814   6.513
14217SOL    HW247499   5.467   3.901   6.530
14218SOL     OW47500   4.918   5.336   5.617
14218SOL    HW147501   4.924   5.243   5.654
14218SOL    HW247502   4.859   5.336   5.537
14219SOL     OW47503   4.546   4.726   6.958
14219SOL    HW147504   4.586   4.725   6.866
14219SOL    HW247505   4.556   4.818   6.998
14220SOL     OW47506   4.640   4.634   5.877
14220SOL    HW147507   4.703   4.672   5.809
14220SOL    HW247508   4.680   4.551   5.916
14221SOL     OW47509   5.228   5.331   5.630
14221SOL    HW147510   5.136   5.368   5.637
14221SOL    HW247511   5.266   5.351   5.540
14222SOL     OW47512   4.096   5.012   7.076
14222SOL    HW147513   4.083   5.105   7.042
14222SOL    HW247514   4.012   4.960   7.063
14223SOL     OW47515   5.338   5.016   6.875
14223SOL    HW147516   5.398   5.019   6.955
14223SOL    HW247517   5.263   5.080   6.888
14224SOL     OW47518   4.763   4.822   6.282
14224SOL    HW147519   4.693   4.775   6.336
14224SOL    HW247520   4.822   4.754   6.239
14225SOL     OW47521   4.738   3.960   6.557
14225SOL    HW147522   4.730   3.924   6.464
14225SOL    HW247523   4.736   3.884   6.622
14226SOL     OW47524   4.314   5.211   6.077
14226SOL    HW147525   4.356   5.153   6.007
14226SOL    HW247526   4.270   5.290   6.033
14227SOL     OW47527   5.433   4.109   6.967
14227SOL    HW147528   5.506   4.178   6.971
14227SOL    HW247529   5.461   4.034   6.908
14228SOL     OW47530   3.979   5.072   5.876
14228SOL    HW147531   3.883   5.073   5.849
14228SOL    HW247532   3.991   5.125   5.960
14229SOL     OW47533   3.829   4.737   7.312
14229SOL    HW147534   3.752   4.704   7.366
14229SOL    HW247535   3.914   4.707   7.354
14230SOL     OW47536   4.396   3.927   7.075
14230SOL    HW147537   4.486   3.911   7.035
14230SOL    HW247538   4.404   3.932   7.174
14231SOL     OW47539   3.799   4.069   5.619
14231SOL    HW147540   3.707   4.041   5.590
14231SOL    HW247541   3.830   4.146   5.563
14232SOL     OW47542   5.164   4.580   6.984
14232SOL    HW147543   5.107   4.632   6.921
14232SOL    HW247544   5.260   4.592   6.960
14233SOL     OW47545   3.796   3.890   5.904
14233SOL    HW147546   3.779   3.973   5.850
14233SOL    HW247547   3.886   3.853   5.882
14234SOL     OW47548   4.907   5.059   5.705
14234SOL    HW147549   4.808   5.048   5.707
14234SOL    HW247550   4.941   5.074   5.798
14235SOL     OW47551   4.337   4.566   7.017
14235SOL    HW147552   4.393   4.647   7.000
14235SOL    HW247553   4.396   4.486   7.020
14236SOL     OW47554   5.217   5.491   6.545
14236SOL    HW147555   5.250   5.555   6.476
14236SOL    HW247556   5.283   5.485   6.620
14237SOL     OW47557   4.440   4.289   7.294
14237SOL    HW147558   4.459   4.354   7.368
14237SOL    HW247559   4.500   4.209   7.303
14238SOL     OW47560   5.174   4.944   7.219
14238SOL    HW147561   5.165   4.934   7.318
14238SOL    HW247562   5.270   4.937   7.193
14239SOL     OW47563   4.114   5.465   7.146
14239SOL    HW147564   4.023   5.506   7.144
14239SOL    HW247565   4.107   5.371   7.178
14240SOL     OW47566   5.398   4.607   6.840
14240SOL    HW147567   5.371   4.518   6.803
14240SOL    HW247568   5.399   4.675   6.767
14241SOL     OW47569   4.949   4.049   6.035
14241SOL    HW147570   5.014   3.975   6.024
14241SOL    HW247571   4.969   4.099   6.119
14242SOL     OW47572   4.318   4.469   6.238
14242SOL    HW147573   4.368   4.554   6.219
14242SOL    HW247574   4.230   4.471   6.190
14243SOL     OW47575   5.501   4.066   7.228
14243SOL    HW147576   5.484   4.097   7.134
14243SOL    HW247577   5.417   4.029   7.266
14244SOL     OW47578   5.454   4.658   7.103
14244SOL    HW147579   5.492   4.749   7.118
14244SOL    HW247580   5.446   4.641   7.004
14245SOL     OW47581   4.583   5.098   5.602
14245SOL    HW147582   4.537   5.113   5.690
14245SOL    HW247583   4.627   5.183   5.572
14246SOL     OW47584   4.385   5.514   6.539
14246SOL    HW147585   4.339   5.602   6.526
14246SOL    HW247586   4.484   5.526   6.532
14247SOL     OW47587   4.583   4.680   6.447
14247SOL    HW147588   4.637   4.611   6.495
14247SOL    HW247589   4.551   4.749   6.513
14248SOL     OW47590   4.807   4.708   5.673
14248SOL    HW147591   4.784   4.761   5.591
14248SOL    HW247592   4.888   4.652   5.654
14249SOL     OW47593   5.585   5.293   6.437
14249SOL    HW147594   5.514   5.281   6.367
14249SOL    HW247595   5.586   5.214   6.497
14250SOL     OW47596   3.945   5.038   7.430
14250SOL    HW147597   3.880   4.965   7.409
14250SOL    HW247598   3.949   5.052   7.528
14251SOL     OW47599   3.803   4.964   6.239
14251SOL    HW147600   3.802   4.917   6.327
14251SOL    HW247601   3.885   4.936   6.188
14252SOL     OW47602   4.396   5.115   7.210
14252SOL    HW147603   4.318   5.065   7.248
14252SOL    HW247604   4.393   5.210   7.241
14253SOL     OW47605   5.548   3.916   6.813
14253SOL    HW147606   5.544   3.826   6.857
14253SOL    HW247607   5.551   3.905   6.714
14254SOL     OW47608   4.152   4.148   6.106
14254SOL    HW147609   4.182   4.076   6.044
14254SOL    HW247610   4.113   4.108   6.189
14255SOL     OW47611   5.429   5.211   6.690
14255SOL    HW147612   5.336   5.186   6.663
14255SOL    HW247613   5.455   5.161   6.772
14256SOL     OW47614   4.041   4.271   6.866
14256SOL    HW147615   4.079   4.212   6.938
14256SOL    HW247616   4.081   4.245   6.778
14257SOL     OW47617   4.536   5.310   6.273
14257SOL    HW147618   4.568   5.320   6.179
14257SOL    HW247619   4.457   5.248   6.275
14258SOL     OW47620   5.148   3.938   6.698
14258SOL    HW147621   5.200   3.873   6.753
14258SOL    HW247622   5.099   4.001   6.759
14259SOL     OW47623   4.725   3.758   6.740
14259SOL    HW147624   4.662   3.686   6.709
14259SOL    HW247625   4.818   3.722   6.740
14260SOL     OW47626   4.494   5.054   5.887
14260SOL    HW147627   4.448   4.967   5.904
14260SOL    HW247628   4.585   5.051   5.928
14261SOL     OW47629   4.342   5.291   6.870
14261SOL    HW147630   4.337   5.373   6.927
14261SOL    HW247631   4.431   5.288   6.825
14262SOL     OW47632   5.076   3.776   5.754
14262SOL    HW147633   5.111   3.735   5.670
14262SOL    HW247634   4.986   3.738   5.774
14263SOL     OW47635   5.024   4.177   6.277
14263SOL    HW147636   4.965   4.257   6.281
14263SOL    HW247637   5.039   4.142   6.370
14264SOL     OW47638   5.317   3.945   6.468
14264SOL    HW147639   5.233   3.944   6.522
14264SOL    HW247640   5.319   4.028   6.412
14265SOL     OW47641   4.599   5.370   5.923
14265SOL    HW147642   4.522   5.335   5.869
14265SOL    HW247643   4.567   5.441   5.985
14266SOL     OW47644   3.954   4.352   7.561
14266SOL    HW147645   3.861   4.350   7.598
14266SOL    HW247646   3.955   4.313   7.469
14267SOL     OW47647   3.949   3.999   8.444
14267SOL    HW147648   3.984   3.982   8.536
14267SOL    HW247649   3.861   3.954   8.432
14268SOL     OW47650   3.743   4.092   8.095
14268SOL    HW147651   3.661   4.135   8.134
14268SOL    HW247652   3.715   4.019   8.032
14269SOL     OW47653   4.293   4.999   8.613
14269SOL    HW147654   4.200   4.992   8.576
14269SOL    HW247655   4.304   5.088   8.657
14270SOL     OW47656   5.279   5.235   8.151
14270SOL    HW147657   5.222   5.219   8.232
14270SOL    HW247658   5.220   5.245   8.071
14271SOL     OW47659   4.859   4.427   8.165
14271SOL    HW147660   4.916   4.505   8.140
14271SOL    HW247661   4.799   4.453   8.241
14272SOL     OW47662   5.479   4.331   7.679
14272SOL    HW147663   5.467   4.318   7.580
14272SOL    HW247664   5.449   4.250   7.728
14273SOL     OW47665   4.492   4.868   8.471
14273SOL    HW147666   4.414   4.885   8.531
14273SOL    HW247667   4.526   4.955   8.435
14274SOL     OW47668   4.574   4.522   9.271
14274SOL    HW147669   4.570   4.598   9.336
14274SOL    HW247670   4.596   4.558   9.180
14275SOL     OW47671   4.409   4.736   8.113
14275SOL    HW147672   4.478   4.720   8.183
14275SOL    HW247673   4.336   4.793   8.151
14276SOL     OW47674   4.410   4.885   9.251
14276SOL    HW147675   4.470   4.964   9.265
14276SOL    HW247676   4.324   4.916   9.210
14277SOL     OW47677   4.059   5.159   8.509
14277SOL    HW147678   3.981   5.128   8.456
14277SOL    HW247679   4.117   5.217   8.452
14278SOL     OW47680   5.184   5.229   8.787
14278SOL    HW147681   5.208   5.323   8.813
14278SOL    HW247682   5.168   5.175   8.869
14279SOL     OW47683   4.162   4.116   8.947
14279SOL    HW147684   4.244   4.060   8.956
14279SOL    HW247685   4.081   4.058   8.951
14280SOL     OW47686   5.327   4.171   8.185
14280SOL    HW147687   5.253   4.217   8.135
14280SOL    HW247688   5.378   4.239   8.238
14281SOL     OW47689   3.955   5.437   7.931
14281SOL    HW147690   3.989   5.514   7.985
14281SOL    HW247691   3.999   5.437   7.841
14282SOL     OW47692   4.851   5.065   9.138
14282SOL    HW147693   4.898   5.065   9.226
14282SOL    HW247694   4.803   4.978   9.127
14283SOL     OW47695   3.954   5.158   7.986
14283SOL    HW147696   3.928   5.254   7.986
14283SOL    HW247697   3.883   5.104   8.031
14284SOL     OW47698   3.964   4.815   8.334
14284SOL    HW147699   3.978   4.731   8.386
14284SOL    HW247700   3.909   4.879   8.389
14285SOL     OW47701   4.344   5.510   8.887
14285SOL    HW147702   4.252   5.493   8.922
14285SOL    HW247703   4.372   5.602   8.913
14286SOL     OW47704   4.330   4.688   7.571
14286SOL    HW147705   4.337   4.772   7.517
14286SOL    HW247706   4.376   4.701   7.659
14287SOL     OW47707   5.318   3.838   8.928
14287SOL    HW147708   5.300   3.905   8.856
14287SOL    HW247709   5.315   3.884   9.017
14288SOL     OW47710   3.846   4.367   8.011
14288SOL    HW147711   3.801   4.279   8.028
14288SOL    HW247712   3.845   4.421   8.095
14289SOL     OW47713   5.566   5.491   7.807
14289SOL    HW147714   5.620   5.462   7.887
14289SOL    HW247715   5.596   5.581   7.778
14290SOL     OW47716   3.751   5.320   7.565
14290SOL    HW147717   3.732   5.224   7.586
14290SOL    HW247718   3.718   5.378   7.640
14291SOL     OW47719   5.413   4.646   8.060
14291SOL    HW147720   5.508   4.617   8.068
14291SOL    HW247721   5.405   4.711   7.985
14292SOL     OW47722   5.365   4.832   7.880
14292SOL    HW147723   5.451   4.834   7.828
14292SOL    HW247724   5.379   4.879   7.968
14293SOL     OW47725   3.837   4.461   9.045
14293SOL    HW147726   3.925   4.448   9.090
14293SOL    HW247727   3.824   4.558   9.023
14294SOL     OW47728   4.337   5.089   8.174
14294SOL    HW147729   4.288   5.002   8.183
14294SOL    HW247730   4.314   5.132   8.087
14295SOL     OW47731   5.017   4.952   8.871
14295SOL    HW147732   5.054   4.879   8.813
14295SOL    HW247733   5.069   4.957   8.956
14296SOL     OW47734   4.533   3.728   7.950
14296SOL    HW147735   4.573   3.819   7.941
14296SOL    HW247736   4.433   3.736   7.956
14297SOL     OW47737   3.921   4.700   8.712
14297SOL    HW147738   4.010   4.655   8.698
14297SOL    HW247739   3.848   4.635   8.693
14298SOL     OW47740   5.249   4.723   7.638
14298SOL    HW147741   5.186   4.647   7.651
14298SOL    HW247742   5.297   4.741   7.724
14299SOL     OW47743   4.911   5.516   9.064
14299SOL    HW147744   4.935   5.576   8.988
14299SOL    HW247745   4.918   5.421   9.034
14300SOL     OW47746   4.041   3.975   9.249
14300SOL    HW147747   4.112   4.046   9.255
14300SOL    HW247748   3.953   4.014   9.277
14301SOL     OW47749   5.190   5.141   8.401
14301SOL    HW147750   5.131   5.147   8.481
14301SOL    HW247751   5.175   5.053   8.355
14302SOL     OW47752   5.391   5.438   8.020
14302SOL    HW147753   5.350   5.415   7.932
14302SOL    HW247754   5.373   5.364   8.085
14303SOL     OW47755   4.322   4.453   7.718
14303SOL    HW147756   4.346   4.522   7.650
14303SOL    HW247757   4.244   4.486   7.772
14304SOL     OW47758   5.005   4.069   8.392
14304SOL    HW147759   4.919   4.019   8.379
14304SOL    HW247760   5.067   4.015   8.448
14305SOL     OW47761   5.300   5.386   7.755
14305SOL    HW147762   5.389   5.432   7.758
14305SOL    HW247763   5.279   5.362   7.660
14306SOL     OW47764   4.531   4.329   8.913
14306SOL    HW147765   4.484   4.326   9.002
14306SOL    HW247766   4.480   4.274   8.847
14307SOL     OW47767   5.118   4.193   9.122
14307SOL    HW147768   5.098   4.236   9.210
14307SOL    HW247769   5.196   4.131   9.131
14308SOL     OW47770   4.697   4.614   9.020
14308SOL    HW147771   4.743   4.530   8.991
14308SOL    HW247772   4.641   4.648   8.945
14309SOL     OW47773   4.715   4.134   8.690
14309SOL    HW147774   4.638   4.168   8.744
14309SOL    HW247775   4.681   4.083   8.611
14310SOL     OW47776   4.765   4.425   7.877
14310SOL    HW147777   4.791   4.421   7.973
14310SOL    HW247778   4.680   4.374   7.863
14311SOL     OW47779   3.800   4.535   8.237
14311SOL    HW147780   3.899   4.523   8.246
14311SOL    HW247781   3.776   4.630   8.258
14312SOL     OW47782   3.854   5.545   9.019
14312SOL    HW147783   3.844   5.530   9.118
14312SOL    HW247784   3.768   5.581   8.983
14313SOL     OW47785   4.589   4.072   7.643
14313SOL    HW147786   4.648   4.135   7.594
14313SOL    HW247787   4.608   3.978   7.614
14314SOL     OW47788   5.443   4.309   9.279
14314SOL    HW147789   5.417   4.398   9.243
14314SOL    HW247790   5.441   4.241   9.206
14315SOL     OW47791   5.086   4.868   7.993
14315SOL    HW147792   5.169   4.839   7.945
14315SOL    HW247793   5.037   4.935   7.937
14316SOL     OW47794   4.274   3.920   8.333
14316SOL    HW147795   4.269   3.915   8.433
14316SOL    HW247796   4.276   4.016   8.304
14317SOL     OW47797   4.732   5.180   7.925
14317SOL    HW147798   4.686   5.252   7.873
14317SOL    HW247799   4.728   5.200   8.023
14318SOL     OW47800   4.075   5.525   8.301
14318SOL    HW147801   4.125   5.439   8.307
14318SOL    HW247802   4.140   5.602   8.298
14319SOL     OW47803   5.519   4.790   8.321
14319SOL    HW147804   5.457   4.775   8.245
14319SOL    HW247805   5.467   4.801   8.406
14320SOL     OW47806   4.951   5.274   8.954
14320SOL    HW147807   4.957   5.197   9.018
14320SOL    HW247808   4.899   5.248   8.874
14321SOL     OW47809   4.045   4.667   7.690
14321SOL    HW147810   4.127   4.706   7.648
14321SOL    HW247811   4.018   4.585   7.641
14322SOL     OW47812   5.182   4.459   8.176
14322SOL    HW147813   5.177   4.394   8.251
14322SOL    HW247814   5.262   4.518   8.189
14323SOL     OW47815   4.185   4.990   9.175
14323SOL    HW147816   4.135   4.991   9.089
14323SOL    HW247817   4.122   4.972   9.251
14324SOL     OW47818   4.835   5.500   7.685
14324SOL    HW147819   4.775   5.438   7.735
14324SOL    HW247820   4.866   5.456   7.600
14325SOL     OW47821   3.926   4.009   8.946
14325SOL    HW147822   3.846   4.069   8.933
14325SOL    HW247823   3.916   3.960   9.032
14326SOL     OW47824   5.356   5.101   7.529
14326SOL    HW147825   5.324   5.195   7.519
14326SOL    HW247826   5.280   5.038   7.517
14327SOL     OW47827   4.188   5.467   7.771
14327SOL    HW147828   4.221   5.506   7.857
14327SOL    HW247829   4.264   5.460   7.706
14328SOL     OW47830   5.124   3.831   7.874
14328SOL    HW147831   5.100   3.794   7.784
14328SOL    HW247832   5.223   3.847   7.878
14329SOL     OW47833   3.973   5.509   8.689
14329SOL    HW147834   4.030   5.444   8.739
14329SOL    HW247835   3.957   5.476   8.596
14330SOL     OW47836   4.664   5.422   8.352
14330SOL    HW147837   4.744   5.365   8.373
14330SOL    HW247838   4.615   5.382   8.275
14331SOL     OW47839   4.106   4.424   7.928
14331SOL    HW147840   4.151   4.334   7.925
14331SOL    HW247841   4.012   4.413   7.961
14332SOL     OW47842   5.271   3.946   9.177
14332SOL    HW147843   5.266   3.983   9.269
14332SOL    HW247844   5.199   3.877   9.165
14333SOL     OW47845   4.338   3.846   7.565
14333SOL    HW147846   4.436   3.824   7.572
14333SOL    HW247847   4.307   3.829   7.472
14334SOL     OW47848   4.505   3.988   9.197
14334SOL    HW147849   4.572   3.927   9.240
14334SOL    HW247850   4.432   4.007   9.262
14335SOL     OW47851   4.612   5.238   8.643
14335SOL    HW147852   4.589   5.213   8.549
14335SOL    HW247853   4.673   5.169   8.682
14336SOL     OW47854   5.075   4.314   8.881
14336SOL    HW147855   5.103   4.271   8.966
14336SOL    HW247856   5.100   4.410   8.882
14337SOL     OW47857   4.527   5.126   8.372
14337SOL    HW147858   4.617   5.140   8.330
14337SOL    HW247859   4.456   5.128   8.301
14338SOL     OW47860   4.646   4.227   8.347
14338SOL    HW147861   4.621   4.218   8.251
14338SOL    HW247862   4.694   4.145   8.378
14339SOL     OW47863   4.263   3.788   7.960
14339SOL    HW147864   4.182   3.789   8.018
14339SOL    HW247865   4.266   3.871   7.905
14340SOL     OW47866   5.158   4.912   7.489
14340SOL    HW147867   5.190   4.836   7.546
14340SOL    HW247868   5.066   4.939   7.519
14341SOL     OW47869   4.021   3.759   7.619
14341SOL    HW147870   4.070   3.843   7.598
14341SOL    HW247871   4.083   3.694   7.664
14342SOL     OW47872   4.659   3.960   7.928
14342SOL    HW147873   4.611   4.001   7.850
14342SOL    HW247874   4.758   3.958   7.909
14343SOL     OW47875   4.800   4.407   8.912
14343SOL    HW147876   4.720   4.346   8.915
14343SOL    HW247877   4.881   4.354   8.888
14344SOL     OW47878   4.951   5.294   8.241
14344SOL    HW147879   4.972   5.368   8.176
14344SOL    HW247880   5.019   5.294   8.314
14345SOL     OW47881   4.183   4.876   8.189
14345SOL    HW147882   4.112   4.849   8.254
14345SOL    HW247883   4.157   4.848   8.096
14346SOL     OW47884   4.995   5.521   8.039
14346SOL    HW147885   5.039   5.585   7.975
14346SOL    HW247886   4.945   5.573   8.109
14347SOL     OW47887   4.756   4.273   7.464
14347SOL    HW147888   4.715   4.355   7.425
14347SOL    HW247889   4.820   4.299   7.537
14348SOL     OW47890   3.802   4.280   8.834
14348SOL    HW147891   3.894   4.279   8.793
14348SOL    HW247892   3.796   4.354   8.901
14349SOL     OW47893   4.285   3.946   8.595
14349SOL    HW147894   4.323   3.862   8.632
14349SOL    HW247895   4.197   3.965   8.639
14350SOL     OW47896   4.590   4.178   8.090
14350SOL    HW147897   4.558   4.250   8.028
14350SOL    HW247898   4.614   4.097   8.037
14351SOL     OW47899   4.741   3.763   8.201
14351SOL    HW147900   4.669   3.768   8.132
14351SOL    HW247901   4.717   3.694   8.270
14352SOL     OW47902   5.153   4.897   8.315
14352SOL    HW147903   5.098   4.813   8.308
14352SOL    HW247904   5.179   4.926   8.223
14353SOL     OW47905   5.190   4.314   8.440
14353SOL    HW147906   5.160   4.219   8.447
14353SOL    HW247907   5.263   4.330   8.506
14354SOL     OW47908   5.581   4.557   7.825
14354SOL    HW147909   5.623   4.493   7.889
14354SOL    HW247910   5.543   4.506   7.747
14355SOL     OW47911   4.212   5.109   7.622
14355SOL    HW147912   4.125   5.094   7.669
14355SOL    HW247913   4.195   5.135   7.527
14356SOL     OW47914   5.388   5.004   8.105
14356SOL    HW147915   5.487   5.012   8.119
14356SOL    HW247916   5.343   5.088   8.136
14357SOL     OW47917   5.114   4.299   7.526
14357SOL    HW147918   5.060   4.278   7.607
14357SOL    HW247919   5.205   4.258   7.535
14358SOL     OW47920   4.251   3.980   7.776
14358SOL    HW147921   4.278   3.921   7.701
14358SOL    HW247922   4.251   4.075   7.745
14359SOL     OW47923   5.478   4.947   9.036
14359SOL    HW147924   5.569   4.908   9.023
14359SOL    HW247925   5.486   5.043   9.060
14360SOL     OW47926   4.788   5.071   8.788
14360SOL    HW147927   4.708   5.048   8.843
14360SOL    HW247928   4.871   5.045   8.837
14361SOL     OW47929   5.316   5.353   9.073
14361SOL    HW147930   5.343   5.387   8.983
14361SOL    HW247931   5.395   5.315   9.119
14362SOL     OW47932   4.835   4.919   8.548
14362SOL    HW147933   4.795   4.963   8.629
14362SOL    HW247934   4.794   4.956   8.465
14363SOL     OW47935   5.362   4.823   8.527
14363SOL    HW147936   5.367   4.904   8.586
14363SOL    HW247937   5.276   4.825   8.476
14364SOL     OW47938   4.639   3.813   8.850
14364SOL    HW147939   4.664   3.793   8.755
14364SOL    HW247940   4.711   3.869   8.892
14365SOL     OW47941   4.704   4.840   9.167
14365SOL    HW147942   4.605   4.846   9.177
14365SOL    HW247943   4.727   4.760   9.111
14366SOL     OW47944   4.429   4.774   7.816
14366SOL    HW147945   4.415   4.781   7.915
14366SOL    HW247946   4.513   4.723   7.798
14367SOL     OW47947   4.134   4.537   8.699
14367SOL    HW147948   4.220   4.549   8.749
14367SOL    HW247949   4.092   4.450   8.726
14368SOL     OW47950   4.998   4.110   8.710
14368SOL    HW147951   5.019   4.184   8.774
14368SOL    HW247952   4.909   4.127   8.667
14369SOL     OW47953   3.788   5.288   8.779
14369SOL    HW147954   3.742   5.370   8.745
14369SOL    HW247955   3.886   5.307   8.788
14370SOL     OW47956   4.091   4.824   7.949
14370SOL    HW147957   4.084   4.907   7.893
14370SOL    HW247958   4.095   4.744   7.889
14371SOL     OW47959   4.290   4.261   8.313
14371SOL    HW147960   4.302   4.327   8.239
14371SOL    HW247961   4.336   4.295   8.396
14372SOL     OW47962   4.976   5.072   7.836
14372SOL    HW147963   5.026   5.149   7.876
14372SOL    HW247964   4.881   5.074   7.868
14373SOL     OW47965   4.996   5.169   8.590
14373SOL    HW147966   5.043   5.182   8.677
14373SOL    HW247967   4.930   5.095   8.599
14374SOL     OW47968   5.306   4.363   7.920
14374SOL    HW147969   5.275   4.424   7.993
14374SOL    HW247970   5.356   4.415   7.851
14375SOL     OW47971   4.078   5.234   8.777
14375SOL    HW147972   4.057   5.190   8.690
14375SOL    HW247973   4.175   5.260   8.780
14376SOL     OW47974   4.126   4.475   9.046
14376SOL    HW147975   4.194   4.530   8.999
14376SOL    HW247976   4.166   4.387   9.073
14377SOL     OW47977   5.311   4.503   9.118
14377SOL    HW147978   5.219   4.541   9.113
14377SOL    HW247979   5.371   4.550   9.053
14378SOL     OW47980   4.228   3.774   9.188
14378SOL    HW147981   4.186   3.717   9.118
14378SOL    HW247982   4.162   3.843   9.220
14379SOL     OW47983   4.297   4.594   8.477
14379SOL    HW147984   4.341   4.683   8.468
14379SOL    HW247985   4.234   4.594   8.554
14380SOL     OW47986   5.084   4.586   8.493
14380SOL    HW147987   5.009   4.586   8.427
14380SOL    HW247988   5.121   4.494   8.502
14381SOL     OW47989   4.933   4.249   7.723
14381SOL    HW147990   4.946   4.165   7.777
14381SOL    HW247991   4.904   4.323   7.783
14382SOL     OW47992   4.031   3.937   8.679
14382SOL    HW147993   4.008   3.974   8.769
14382SOL    HW247994   4.001   3.842   8.673
14383SOL     OW47995   3.761   5.034   8.730
14383SOL    HW147996   3.814   4.985   8.798
14383SOL    HW247997   3.783   5.132   8.735
14384SOL     OW47998   4.456   4.358   8.512
14384SOL    HW147999   4.515   4.332   8.436
14384SOL    HW248000   4.428   4.454   8.501
14385SOL     OW48001   5.452   4.659   9.302
14385SOL    HW148002   5.406   4.652   9.213
14385SOL    HW248003   5.390   4.703   9.368
14386SOL     OW48004   4.031   3.787   8.066
14386SOL    HW148005   4.020   3.881   8.099
14386SOL    HW248006   4.026   3.724   8.143
14387SOL     OW48007   5.346   4.091   7.822
14387SOL    HW148008   5.348   4.015   7.886
14387SOL    HW248009   5.298   4.168   7.862
14388SOL     OW48010   4.747   4.490   8.414
14388SOL    HW148011   4.762   4.511   8.510
14388SOL    HW248012   4.717   4.395   8.405
14389SOL     OW48013   4.704   5.297   9.148
14389SOL    HW148014   4.684   5.341   9.060
14389SOL    HW248015   4.743   5.206   9.132
14390SOL     OW48016   5.583   5.242   9.053
14390SOL    HW148017   5.597   5.269   8.958
14390SOL    HW248018   5.666   5.264   9.106
14391SOL     OW48019   4.074   4.622   9.252
14391SOL    HW148020   4.150   4.666   9.300
14391SOL    HW248021   4.109   4.575   9.170
14392SOL     OW48022   5.264   3.998   7.573
14392SOL    HW148023   5.203   3.923   7.596
14392SOL    HW248024   5.286   4.050   7.656
14393SOL     OW48025   5.027   4.562   7.490
14393SOL    HW148026   5.061   4.469   7.505
14393SOL    HW248027   5.045   4.589   7.395
14394SOL     OW48028   4.792   5.057   8.297
14394SOL    HW148029   4.799   4.973   8.242
14394SOL    HW248030   4.854   5.126   8.261
14395SOL     OW48031   4.043   4.534   8.397
14395SOL    HW148032   4.136   4.570   8.402
14395SOL    HW248033   4.037   4.449   8.449
14396SOL     OW48034   4.063   4.233   8.454
14396SOL    HW148035   4.011   4.150   8.437
14396SOL    HW248036   4.140   4.238   8.390
14397SOL     OW48037   4.862   4.104   9.126
14397SOL    HW148038   4.817   4.167   9.190
14397SOL    HW248039   4.955   4.135   9.109
14398SOL     OW48040   4.884   3.931   8.925
14398SOL    HW148041   4.884   3.995   9.002
14398SOL    HW248042   4.912   3.979   8.842
14399SOL     OW48043   3.812   5.525   8.375
14399SOL    HW148044   3.770   5.439   8.348
14399SOL    HW248045   3.906   5.528   8.341
14400SOL     OW48046   4.228   5.292   8.358
14400SOL    HW148047   4.294   5.366   8.367
14400SOL    HW248048   4.272   5.213   8.316
14401SOL     OW48049   4.726   4.520   8.686
14401SOL    HW148050   4.767   4.488   8.772
14401SOL    HW248051   4.630   4.493   8.683
14402SOL     OW48052   3.764   4.268   8.562
14402SOL    HW148053   3.849   4.235   8.521
14402SOL    HW248054   3.777   4.283   8.660
14403SOL     OW48055   3.913   4.244   9.170
14403SOL    HW148056   3.972   4.204   9.100
14403SOL    HW248057   3.855   4.315   9.129
14404SOL     OW48058   5.093   4.674   9.108
14404SOL    HW148059   5.132   4.763   9.128
14404SOL    HW248060   5.103   4.654   9.011
14405SOL     OW48061   4.539   4.296   7.773
14405SOL    HW148062   4.546   4.207   7.727
14405SOL    HW248063   4.445   4.330   7.765
14406SOL     OW48064   5.381   4.328   8.654
14406SOL    HW148065   5.343   4.259   8.716
14406SOL    HW248066   5.463   4.292   8.610
14407SOL     OW48067   3.976   5.288   9.192
14407SOL    HW148068   3.946   5.345   9.268
14407SOL    HW248069   3.969   5.191   9.218
14408SOL     OW48070   4.395   4.188   8.717
14408SOL    HW148071   4.361   4.099   8.687
14408SOL    HW248072   4.421   4.242   8.637
14409SOL     OW48073   4.654   5.402   8.913
14409SOL    HW148074   4.630   5.384   8.818
14409SOL    HW248075   4.684   5.496   8.923
14410SOL     OW48076   4.197   4.224   7.639
14410SOL    HW148077   4.258   4.304   7.643
14410SOL    HW248078   4.102   4.255   7.646
14411SOL     OW48079   3.883   4.861   8.914
14411SOL    HW148080   3.905   4.800   8.990
14411SOL    HW248081   3.893   4.812   8.828
14412SOL     OW48082   5.026   4.579   7.757
14412SOL    HW148083   4.940   4.548   7.799
14412SOL    HW248084   5.022   4.565   7.658
14413SOL     OW48085   5.483   5.471   8.602
14413SOL    HW148086   5.544   5.501   8.529
14413SOL    HW248087   5.445   5.382   8.580
14414SOL     OW48088   4.976   5.455   8.576
14414SOL    HW148089   5.060   5.460   8.522
14414SOL    HW248090   4.953   5.359   8.594
14415SOL     OW48091   3.807   4.982   8.470
14415SOL    HW148092   3.802   4.981   8.570
14415SOL    HW248093   3.724   4.941   8.432
14416SOL     OW48094   4.412   5.386   9.164
14416SOL    HW148095   4.356   5.467   9.173
14416SOL    HW248096   4.464   5.390   9.078
14417SOL     OW48097   5.450   3.859   7.971
14417SOL    HW148098   5.523   3.842   7.904
14417SOL    HW248099   5.419   3.772   8.009
14418SOL     OW48100   5.112   5.297   7.925
14418SOL    HW148101   5.179   5.309   7.851
14418SOL    HW248102   5.072   5.386   7.948
14419SOL     OW48103   3.854   5.518   9.299
14419SOL    HW148104   3.813   5.444   9.352
14419SOL    HW248105   3.918   5.569   9.357
14420SOL     OW48106   5.004   4.651   8.120
14420SOL    HW148107   5.064   4.570   8.122
14420SOL    HW248108   5.044   4.720   8.060
14421SOL     OW48109   4.554   4.997   8.870
14421SOL    HW148110   4.549   5.030   8.965
14421SOL    HW248111   4.468   5.016   8.824
14422SOL     OW48112   4.396   5.340   7.602
14422SOL    HW148113   4.405   5.350   7.503
14422SOL    HW248114   4.356   5.251   7.623
14423SOL     OW48115   5.374   5.444   8.842
14423SOL    HW148116   5.427   5.454   8.758
14423SOL    HW248117   5.347   5.534   8.876
14424SOL     OW48118   5.565   3.899   8.411
14424SOL    HW148119   5.604   3.814   8.375
14424SOL    HW248120   5.467   3.901   8.392
14425SOL     OW48121   3.987   4.050   8.168
14425SOL    HW148122   3.908   4.101   8.134
14425SOL    HW248123   3.978   4.035   8.266
14426SOL     OW48124   4.918   5.336   7.479
14426SOL    HW148125   4.924   5.243   7.516
14426SOL    HW248126   4.859   5.336   7.399
14427SOL     OW48127   4.546   4.726   8.820
14427SOL    HW148128   4.586   4.725   8.728
14427SOL    HW248129   4.556   4.818   8.860
14428SOL     OW48130   4.640   4.634   7.739
14428SOL    HW148131   4.703   4.672   7.671
14428SOL    HW248132   4.680   4.551   7.778
14429SOL     OW48133   5.228   5.331   7.492
14429SOL    HW148134   5.136   5.368   7.499
14429SOL    HW248135   5.266   5.351   7.402
14430SOL     OW48136   4.096   5.012   8.938
14430SOL    HW148137   4.083   5.105   8.904
14430SOL    HW248138   4.012   4.960   8.925
14431SOL     OW48139   5.338   5.016   8.737
14431SOL    HW148140   5.398   5.019   8.817
14431SOL    HW248141   5.263   5.080   8.750
14432SOL     OW48142   4.763   4.822   8.144
14432SOL    HW148143   4.693   4.775   8.198
14432SOL    HW248144   4.822   4.754   8.101
14433SOL     OW48145   4.738   3.960   8.419
14433SOL    HW148146   4.730   3.924   8.326
14433SOL    HW248147   4.736   3.884   8.484
14434SOL     OW48148   4.314   5.211   7.939
14434SOL    HW148149   4.356   5.153   7.869
14434SOL    HW248150   4.270   5.290   7.895
14435SOL     OW48151   5.433   4.109   8.829
14435SOL    HW148152   5.506   4.178   8.833
14435SOL    HW248153   5.461   4.034   8.770
14436SOL     OW48154   3.979   5.072   7.738
14436SOL    HW148155   3.883   5.073   7.711
14436SOL    HW248156   3.991   5.125   7.822
14437SOL     OW48157   3.829   4.737   9.174
14437SOL    HW148158   3.752   4.704   9.228
14437SOL    HW248159   3.914   4.707   9.216
14438SOL     OW48160   4.396   3.927   8.937
14438SOL    HW148161   4.486   3.911   8.897
14438SOL    HW248162   4.404   3.932   9.036
14439SOL     OW48163   5.164   4.580   8.846
14439SOL    HW148164   5.107   4.632   8.783
14439SOL    HW248165   5.260   4.592   8.822
14440SOL     OW48166   3.796   3.890   7.766
14440SOL    HW148167   3.779   3.973   7.712
14440SOL    HW248168   3.886   3.853   7.744
14441SOL     OW48169   4.907   5.059   7.567
14441SOL    HW148170   4.808   5.048   7.569
14441SOL    HW248171   4.941   5.074   7.660
14442SOL     OW48172   4.337   4.566   8.879
14442SOL    HW148173   4.393   4.647   8.862
14442SOL    HW248174   4.396   4.486   8.882
14443SOL     OW48175   5.217   5.491   8.407
14443SOL    HW148176   5.250   5.555   8.338
14443SOL    HW248177   5.283   5.485   8.482
14444SOL     OW48178   4.440   4.289   9.156
14444SOL    HW148179   4.459   4.354   9.230
14444SOL    HW248180   4.500   4.209   9.165
14445SOL     OW48181   5.174   4.944   9.081
14445SOL    HW148182   5.165   4.934   9.180
14445SOL    HW248183   5.270   4.937   9.055
14446SOL     OW48184   4.114   5.465   9.008
14446SOL    HW148185   4.023   5.506   9.006
14446SOL    HW248186   4.107   5.371   9.040
14447SOL     OW48187   5.398   4.607   8.702
14447SOL    HW148188   5.371   4.518   8.665
14447SOL    HW248189   5.399   4.675   8.629
14448SOL     OW48190   4.949   4.049   7.897
14448SOL    HW148191   5.014   3.975   7.886
14448SOL    HW248192   4.969   4.099   7.981
14449SOL     OW48193   5.501   4.066   9.090
14449SOL    HW148194   5.484   4.097   8.996
14449SOL    HW248195   5.417   4.029   9.128
14450SOL     OW48196   5.454   4.658   8.965
14450SOL    HW148197   5.492   4.749   8.980
14450SOL    HW248198   5.446   4.641   8.866
14451SOL     OW48199   4.583   5.098   7.464
14451SOL    HW148200   4.537   5.113   7.552
14451SOL    HW248201   4.627   5.183   7.434
14452SOL     OW48202   4.385   5.514   8.401
14452SOL    HW148203   4.339   5.602   8.388
14452SOL    HW248204   4.484   5.526   8.394
14453SOL     OW48205   4.583   4.680   8.309
14453SOL    HW148206   4.637   4.611   8.357
14453SOL    HW248207   4.551   4.749   8.375
14454SOL     OW48208   4.807   4.708   7.535
14454SOL    HW148209   4.784   4.761   7.453
14454SOL    HW248210   4.888   4.652   7.516
14455SOL     OW48211   5.585   5.293   8.299
14455SOL    HW148212   5.514   5.281   8.229
14455SOL    HW248213   5.586   5.214   8.359
14456SOL     OW48214   3.945   5.038   9.292
14456SOL    HW148215   3.880   4.965   9.271
14456SOL    HW248216   3.949   5.052   9.390
14457SOL     OW48217   3.803   4.964   8.101
14457SOL    HW148218   3.802   4.917   8.189
14457SOL    HW248219   3.885   4.936   8.050
14458SOL     OW48220   4.396   5.115   9.072
14458SOL    HW148221   4.318   5.065   9.110
14458SOL    HW248222   4.393   5.210   9.103
14459SOL     OW48223   5.548   3.916   8.675
14459SOL    HW148224   5.544   3.826   8.719
14459SOL    HW248225   5.551   3.905   8.576
14460SOL     OW48226   4.152   4.148   7.968
14460SOL    HW148227   4.182   4.076   7.906
14460SOL    HW248228   4.113   4.108   8.051
14461SOL     OW48229   5.429   5.211   8.552
14461SOL    HW148230   5.336   5.186   8.525
14461SOL    HW248231   5.455   5.161   8.634
14462SOL     OW48232   4.041   4.271   8.728
14462SOL    HW148233   4.079   4.212   8.800
14462SOL    HW248234   4.081   4.245   8.640
14463SOL     OW48235   4.536   5.310   8.135
14463SOL    HW148236   4.568   5.320   8.041
14463SOL    HW248237   4.457   5.248   8.137
14464SOL     OW48238   5.148   3.938   8.560
14464SOL    HW148239   5.200   3.873   8.615
14464SOL    HW248240   5.099   4.001   8.621
14465SOL     OW48241   4.725   3.758   8.602
14465SOL    HW148242   4.662   3.686   8.571
14465SOL    HW248243   4.818   3.722   8.602
14466SOL     OW48244   4.494   5.054   7.749
14466SOL    HW148245   4.448   4.967   7.766
14466SOL    HW248246   4.585   5.051   7.790
14467SOL     OW48247   4.342   5.291   8.732
14467SOL    HW148248   4.337   5.373   8.789
14467SOL    HW248249   4.431   5.288   8.687
14468SOL     OW48250   5.076   3.776   7.616
14468SOL    HW148251   5.111   3.735   7.532
14468SOL    HW248252   4.986   3.738   7.636
14469SOL     OW48253   5.024   4.177   8.139
14469SOL    HW148254   4.965   4.257   8.143
14469SOL    HW248255   5.039   4.142   8.232
14470SOL     OW48256   5.317   3.945   8.330
14470SOL    HW148257   5.233   3.944   8.384
14470SOL    HW248258   5.319   4.028   8.274
14471SOL     OW48259   3.763   4.801   7.748
14471SOL    HW148260   3.862   4.790   7.739
14471SOL    HW248261   3.723   4.715   7.780
14472SOL     OW48262   4.599   5.370   7.785
14472SOL    HW148263   4.522   5.335   7.731
14472SOL    HW248264   4.567   5.441   7.847
14473SOL     OW48265   3.954   4.352   9.423
14473SOL    HW148266   3.861   4.350   9.460
14473SOL    HW248267   3.955   4.313   9.331
14474SOL     OW48268   5.479   4.331   9.541
14474SOL    HW148269   5.467   4.318   9.442
14474SOL    HW248270   5.449   4.250   9.590
14475SOL     OW48271   3.955   5.437   9.793
14475SOL    HW148272   3.989   5.514   9.847
14475SOL    HW248273   3.999   5.437   9.703
14476SOL     OW48274   3.954   5.158   9.848
14476SOL    HW148275   3.928   5.254   9.848
14476SOL    HW248276   3.883   5.104   9.893
14477SOL     OW48277   4.330   4.688   9.433
14477SOL    HW148278   4.337   4.772   9.379
14477SOL    HW248279   4.376   4.701   9.521
14478SOL     OW48280   3.846   4.367   9.873
14478SOL    HW148281   3.801   4.279   9.890
14478SOL    HW248282   3.845   4.421   9.957
14479SOL     OW48283   5.566   5.491   9.669
14479SOL    HW148284   5.620   5.462   9.749
14479SOL    HW248285   5.596   5.581   9.640
14480SOL     OW48286   3.751   5.320   9.427
14480SOL    HW148287   3.732   5.224   9.448
14480SOL    HW248288   3.718   5.378   9.502
14481SOL     OW48289   5.413   4.646   9.922
14481SOL    HW148290   5.508   4.617   9.930
14481SOL    HW248291   5.405   4.711   9.847
14482SOL     OW48292   5.365   4.832   9.742
14482SOL    HW148293   5.451   4.834   9.690
14482SOL    HW248294   5.379   4.879   9.830
14483SOL     OW48295   4.533   3.728   9.812
14483SOL    HW148296   4.573   3.819   9.803
14483SOL    HW248297   4.433   3.736   9.818
14484SOL     OW48298   5.249   4.723   9.500
14484SOL    HW148299   5.186   4.647   9.513
14484SOL    HW248300   5.297   4.741   9.586
14485SOL     OW48301   4.322   4.453   9.580
14485SOL    HW148302   4.346   4.522   9.512
14485SOL    HW248303   4.244   4.486   9.634
14486SOL     OW48304   5.300   5.386   9.617
14486SOL    HW148305   5.389   5.432   9.620
14486SOL    HW248306   5.279   5.362   9.522
14487SOL     OW48307   4.765   4.425   9.739
14487SOL    HW148308   4.791   4.421   9.835
14487SOL    HW248309   4.680   4.374   9.725
14488SOL     OW48310   3.800   4.535  10.099
14488SOL    HW148311   3.899   4.523  10.108
14488SOL    HW248312   3.776   4.630  10.120
14489SOL     OW48313   5.086   4.868   9.855
14489SOL    HW148314   5.169   4.839   9.807
14489SOL    HW248315   5.037   4.935   9.799
14490SOL     OW48316   4.732   5.180   9.787
14490SOL    HW148317   4.686   5.252   9.735
14490SOL    HW248318   4.728   5.200   9.885
14491SOL     OW48319   4.075   5.525  10.163
14491SOL    HW148320   4.125   5.439  10.169
14491SOL    HW248321   4.140   5.602  10.160
14492SOL     OW48322   4.835   5.500   9.547
14492SOL    HW148323   4.775   5.438   9.597
14492SOL    HW248324   4.866   5.456   9.462
14493SOL     OW48325   5.356   5.101   9.391
14493SOL    HW148326   5.324   5.195   9.381
14493SOL    HW248327   5.280   5.038   9.379
14494SOL     OW48328   4.188   5.467   9.633
14494SOL    HW148329   4.221   5.506   9.719
14494SOL    HW248330   4.264   5.460   9.568
14495SOL     OW48331   4.106   4.424   9.790
14495SOL    HW148332   4.151   4.334   9.787
14495SOL    HW248333   4.012   4.413   9.823
14496SOL     OW48334   4.338   3.846   9.427
14496SOL    HW148335   4.436   3.824   9.434
14496SOL    HW248336   4.307   3.829   9.334
14497SOL     OW48337   4.263   3.788   9.822
14497SOL    HW148338   4.182   3.789   9.880
14497SOL    HW248339   4.266   3.871   9.767
14498SOL     OW48340   5.158   4.912   9.351
14498SOL    HW148341   5.190   4.836   9.408
14498SOL    HW248342   5.066   4.939   9.381
14499SOL     OW48343   4.021   3.759   9.481
14499SOL    HW148344   4.070   3.843   9.460
14499SOL    HW248345   4.083   3.694   9.526
14500SOL     OW48346   4.659   3.960   9.790
14500SOL    HW148347   4.611   4.001   9.712
14500SOL    HW248348   4.758   3.958   9.771
14501SOL     OW48349   4.183   4.876  10.051
14501SOL    HW148350   4.112   4.849  10.116
14501SOL    HW248351   4.157   4.848   9.958
14502SOL     OW48352   4.995   5.521   9.901
14502SOL    HW148353   5.039   5.585   9.837
14502SOL    HW248354   4.945   5.573   9.971
14503SOL     OW48355   4.756   4.273   9.326
14503SOL    HW148356   4.715   4.355   9.287
14503SOL    HW248357   4.820   4.299   9.399
14504SOL     OW48358   4.590   4.178   9.952
14504SOL    HW148359   4.558   4.250   9.890
14504SOL    HW248360   4.614   4.097   9.899
14505SOL     OW48361   5.581   4.557   9.687
14505SOL    HW148362   5.623   4.493   9.751
14505SOL    HW248363   5.543   4.506   9.609
14506SOL     OW48364   4.212   5.109   9.484
14506SOL    HW148365   4.125   5.094   9.531
14506SOL    HW248366   4.195   5.135   9.389
14507SOL     OW48367   5.114   4.299   9.388
14507SOL    HW148368   5.060   4.278   9.469
14507SOL    HW248369   5.205   4.258   9.397
14508SOL     OW48370   4.251   3.980   9.638
14508SOL    HW148371   4.278   3.921   9.563
14508SOL    HW248372   4.251   4.075   9.607
14509SOL     OW48373   4.429   4.774   9.678
14509SOL    HW148374   4.415   4.781   9.777
14509SOL    HW248375   4.513   4.723   9.660
14510SOL     OW48376   4.091   4.824   9.811
14510SOL    HW148377   4.084   4.907   9.755
14510SOL    HW248378   4.095   4.744   9.751
14511SOL     OW48379   4.976   5.072   9.698
14511SOL    HW148380   5.026   5.149   9.738
14511SOL    HW248381   4.881   5.074   9.730
14512SOL     OW48382   5.306   4.363   9.782
14512SOL    HW148383   5.275   4.424   9.855
14512SOL    HW248384   5.356   4.415   9.713
14513SOL     OW48385   4.031   3.787   9.928
14513SOL    HW148386   4.020   3.881   9.961
14513SOL    HW248387   4.026   3.724  10.005
14514SOL     OW48388   5.346   4.091   9.684
14514SOL    HW148389   5.348   4.015   9.748
14514SOL    HW248390   5.298   4.168   9.724
14515SOL     OW48391   5.264   3.998   9.435
14515SOL    HW148392   5.203   3.923   9.458
14515SOL    HW248393   5.286   4.050   9.518
14516SOL     OW48394   5.027   4.562   9.352
14516SOL    HW148395   5.061   4.469   9.367
14516SOL    HW248396   5.045   4.589   9.257
14517SOL     OW48397   3.732   5.050   9.510
14517SOL    HW148398   3.639   5.071   9.479
14517SOL    HW248399   3.742   4.951   9.523
14518SOL     OW48400   4.539   4.296   9.635
14518SOL    HW148401   4.546   4.207   9.589
14518SOL    HW248402   4.445   4.330   9.627
14519SOL     OW48403   4.197   4.224   9.501
14519SOL    HW148404   4.258   4.304   9.505
14519SOL    HW248405   4.102   4.255   9.508
14520SOL     OW48406   5.026   4.579   9.619
14520SOL    HW148407   4.940   4.548   9.661
14520SOL    HW248408   5.022   4.565   9.520
14521SOL     OW48409   5.450   3.859   9.833
14521SOL    HW148410   5.523   3.842   9.766
14521SOL    HW248411   5.419   3.772   9.871
14522SOL     OW48412   5.112   5.297   9.787
14522SOL    HW148413   5.179   5.309   9.713
14522SOL    HW248414   5.072   5.386   9.810
14523SOL     OW48415   4.396   5.340   9.464
14523SOL    HW148416   4.405   5.350   9.365
14523SOL    HW248417   4.356   5.251   9.485
14524SOL     OW48418   4.918   5.336   9.341
14524SOL    HW148419   4.924   5.243   9.378
14524SOL    HW248420   4.859   5.336   9.261
14525SOL     OW48421   4.640   4.634   9.601
14525SOL    HW148422   4.703   4.672   9.533
14525SOL    HW248423   4.680   4.551   9.640
14526SOL     OW48424   5.228   5.331   9.354
14526SOL    HW148425   5.136   5.368   9.361
14526SOL    HW248426   5.266   5.351   9.264
14527SOL     OW48427   4.314   5.211   9.801
14527SOL    HW148428   4.356   5.153   9.731
14527SOL    HW248429   4.270   5.290   9.757
14528SOL     OW48430   3.979   5.072   9.600
14528SOL    HW148431   3.883   5.073   9.573
14528SOL    HW248432   3.991   5.125   9.684
14529SOL     OW48433   3.799   4.069   9.343
14529SOL    HW148434   3.707   4.041   9.314
14529SOL    HW248435   3.830   4.146   9.287
14530SOL     OW48436   3.796   3.890   9.628
14530SOL    HW148437   3.779   3.973   9.574
14530SOL    HW248438   3.886   3.853   9.606
14531SOL     OW48439   4.907   5.059   9.429
14531SOL    HW148440   4.808   5.048   9.431
14531SOL    HW248441   4.941   5.074   9.522
14532SOL     OW48442   4.949   4.049   9.759
14532SOL    HW148443   5.014   3.975   9.748
14532SOL    HW248444   4.969   4.099   9.843
14533SOL     OW48445   4.318   4.469   9.962
14533SOL    HW148446   4.368   4.554   9.943
14533SOL    HW248447   4.230   4.471   9.914
14534SOL     OW48448   4.583   5.098   9.326
14534SOL    HW148449   4.537   5.113   9.414
14534SOL    HW248450   4.627   5.183   9.296
14535SOL     OW48451   4.807   4.708   9.397
14535SOL    HW148452   4.784   4.761   9.315
14535SOL    HW248453   4.888   4.652   9.378
14536SOL     OW48454   3.803   4.964   9.963
14536SOL    HW148455   3.802   4.917  10.051
14536SOL    HW248456   3.885   4.936   9.912
14537SOL     OW48457   4.152   4.148   9.830
14537SOL    HW148458   4.182   4.076   9.768
14537SOL    HW248459   4.113   4.108   9.913
14538SOL     OW48460   4.494   5.054   9.611
14538SOL    HW148461   4.448   4.967   9.628
14538SOL    HW248462   4.585   5.051   9.652
14539SOL     OW48463   3.763   4.801   9.610
14539SOL    HW148464   3.862   4.790   9.601
14539SOL    HW248465   3.723   4.715   9.642
14540SOL     OW48466   4.599   5.370   9.647
14540SOL    HW148467   4.522   5.335   9.593
14540SOL    HW248468   4.567   5.441   9.709
14541SOL     OW48469   3.954   6.214   0.113
14541SOL    HW148470   3.861   6.212   0.150
14541SOL    HW248471   3.955   6.175   0.021
14542SOL     OW48472   3.949   5.861   0.996
14542SOL    HW148473   3.984   5.844   1.088
14542SOL    HW248474   3.861   5.816   0.984
14543SOL     OW48475   3.743   5.954   0.647
14543SOL    HW148476   3.661   5.997   0.686
14543SOL    HW248477   3.715   5.881   0.584
14544SOL     OW48478   4.293   6.861   1.165
14544SOL    HW148479   4.200   6.854   1.128
14544SOL    HW248480   4.304   6.950   1.209
14545SOL     OW48481   5.279   7.097   0.703
14545SOL    HW148482   5.222   7.081   0.784
14545SOL    HW248483   5.220   7.107   0.623
14546SOL     OW48484   4.859   6.289   0.717
14546SOL    HW148485   4.916   6.367   0.692
14546SOL    HW248486   4.799   6.315   0.793
14547SOL     OW48487   5.479   6.193   0.231
14547SOL    HW148488   5.467   6.180   0.132
14547SOL    HW248489   5.449   6.112   0.280
14548SOL     OW48490   4.492   6.730   1.023
14548SOL    HW148491   4.414   6.747   1.083
14548SOL    HW248492   4.526   6.817   0.987
14549SOL     OW48493   4.574   6.384   1.823
14549SOL    HW148494   4.570   6.460   1.888
14549SOL    HW248495   4.596   6.420   1.732
14550SOL     OW48496   4.409   6.598   0.665
14550SOL    HW148497   4.478   6.582   0.735
14550SOL    HW248498   4.336   6.655   0.703
14551SOL     OW48499   4.410   6.747   1.803
14551SOL    HW148500   4.470   6.826   1.817
14551SOL    HW248501   4.324   6.778   1.762
14552SOL     OW48502   4.059   7.021   1.061
14552SOL    HW148503   3.981   6.990   1.008
14552SOL    HW248504   4.117   7.079   1.004
14553SOL     OW48505   5.184   7.091   1.339
14553SOL    HW148506   5.208   7.185   1.365
14553SOL    HW248507   5.168   7.037   1.421
14554SOL     OW48508   4.162   5.978   1.499
14554SOL    HW148509   4.244   5.922   1.508
14554SOL    HW248510   4.081   5.920   1.503
14555SOL     OW48511   5.327   6.033   0.737
14555SOL    HW148512   5.253   6.079   0.687
14555SOL    HW248513   5.378   6.101   0.790
14556SOL     OW48514   3.955   7.299   0.483
14556SOL    HW148515   3.989   7.376   0.537
14556SOL    HW248516   3.999   7.299   0.393
14557SOL     OW48517   4.851   6.927   1.690
14557SOL    HW148518   4.898   6.927   1.778
14557SOL    HW248519   4.803   6.840   1.679
14558SOL     OW48520   3.964   6.677   0.886
14558SOL    HW148521   3.978   6.593   0.938
14558SOL    HW248522   3.909   6.741   0.941
14559SOL     OW48523   4.344   7.372   1.439
14559SOL    HW148524   4.252   7.355   1.474
14559SOL    HW248525   4.372   7.464   1.465
14560SOL     OW48526   5.318   5.700   1.480
14560SOL    HW148527   5.300   5.767   1.408
14560SOL    HW248528   5.315   5.746   1.569
14561SOL     OW48529   3.846   6.229   0.563
14561SOL    HW148530   3.801   6.141   0.580
14561SOL    HW248531   3.845   6.283   0.647
14562SOL     OW48532   3.751   7.182   0.117
14562SOL    HW148533   3.732   7.086   0.138
14562SOL    HW248534   3.718   7.240   0.192
14563SOL     OW48535   5.413   6.508   0.612
14563SOL    HW148536   5.508   6.479   0.620
14563SOL    HW248537   5.405   6.573   0.537
14564SOL     OW48538   5.365   6.694   0.432
14564SOL    HW148539   5.451   6.696   0.380
14564SOL    HW248540   5.379   6.741   0.520
14565SOL     OW48541   3.837   6.323   1.597
14565SOL    HW148542   3.925   6.310   1.642
14565SOL    HW248543   3.824   6.420   1.575
14566SOL     OW48544   4.337   6.951   0.726
14566SOL    HW148545   4.288   6.864   0.735
14566SOL    HW248546   4.314   6.994   0.639
14567SOL     OW48547   5.017   6.814   1.423
14567SOL    HW148548   5.054   6.741   1.365
14567SOL    HW248549   5.069   6.819   1.508
14568SOL     OW48550   5.249   6.585   0.190
14568SOL    HW148551   5.186   6.509   0.203
14568SOL    HW248552   5.297   6.603   0.276
14569SOL     OW48553   4.911   7.378   1.616
14569SOL    HW148554   4.935   7.438   1.540
14569SOL    HW248555   4.918   7.283   1.586
14570SOL     OW48556   4.041   5.837   1.801
14570SOL    HW148557   4.112   5.908   1.807
14570SOL    HW248558   3.953   5.876   1.829
14571SOL     OW48559   5.190   7.003   0.953
14571SOL    HW148560   5.131   7.009   1.033
14571SOL    HW248561   5.175   6.915   0.907
14572SOL     OW48562   5.391   7.300   0.572
14572SOL    HW148563   5.350   7.277   0.484
14572SOL    HW248564   5.373   7.226   0.637
14573SOL     OW48565   4.322   6.315   0.270
14573SOL    HW148566   4.346   6.384   0.202
14573SOL    HW248567   4.244   6.348   0.324
14574SOL     OW48568   5.005   5.931   0.944
14574SOL    HW148569   4.919   5.881   0.931
14574SOL    HW248570   5.067   5.877   1.000
14575SOL     OW48571   5.300   7.248   0.307
14575SOL    HW148572   5.389   7.294   0.310
14575SOL    HW248573   5.279   7.224   0.212
14576SOL     OW48574   4.531   6.191   1.465
14576SOL    HW148575   4.484   6.188   1.554
14576SOL    HW248576   4.480   6.136   1.399
14577SOL     OW48577   5.118   6.055   1.674
14577SOL    HW148578   5.098   6.098   1.762
14577SOL    HW248579   5.196   5.993   1.683
14578SOL     OW48580   4.697   6.476   1.572
14578SOL    HW148581   4.743   6.392   1.543
14578SOL    HW248582   4.641   6.510   1.497
14579SOL     OW48583   4.715   5.996   1.242
14579SOL    HW148584   4.638   6.030   1.296
14579SOL    HW248585   4.681   5.945   1.163
14580SOL     OW48586   4.765   6.287   0.429
14580SOL    HW148587   4.791   6.283   0.525
14580SOL    HW248588   4.680   6.236   0.415
14581SOL     OW48589   3.800   6.397   0.789
14581SOL    HW148590   3.899   6.385   0.798
14581SOL    HW248591   3.776   6.492   0.810
14582SOL     OW48592   3.854   7.407   1.571
14582SOL    HW148593   3.844   7.392   1.670
14582SOL    HW248594   3.768   7.443   1.535
14583SOL     OW48595   4.589   5.934   0.195
14583SOL    HW148596   4.648   5.997   0.146
14583SOL    HW248597   4.608   5.840   0.166
14584SOL     OW48598   5.443   6.171   1.831
14584SOL    HW148599   5.417   6.260   1.795
14584SOL    HW248600   5.441   6.103   1.758
14585SOL     OW48601   5.086   6.730   0.545
14585SOL    HW148602   5.169   6.701   0.497
14585SOL    HW248603   5.037   6.797   0.489
14586SOL     OW48604   4.274   5.782   0.885
14586SOL    HW148605   4.269   5.777   0.985
14586SOL    HW248606   4.276   5.878   0.856
14587SOL     OW48607   4.732   7.042   0.477
14587SOL    HW148608   4.686   7.114   0.425
14587SOL    HW248609   4.728   7.062   0.575
14588SOL     OW48610   4.075   7.387   0.853
14588SOL    HW148611   4.125   7.301   0.859
14588SOL    HW248612   4.140   7.464   0.850
14589SOL     OW48613   5.519   6.652   0.873
14589SOL    HW148614   5.457   6.637   0.797
14589SOL    HW248615   5.467   6.663   0.958
14590SOL     OW48616   4.951   7.136   1.506
14590SOL    HW148617   4.957   7.059   1.570
14590SOL    HW248618   4.899   7.110   1.426
14591SOL     OW48619   5.182   6.321   0.728
14591SOL    HW148620   5.177   6.256   0.803
14591SOL    HW248621   5.262   6.380   0.741
14592SOL     OW48622   4.185   6.852   1.727
14592SOL    HW148623   4.135   6.853   1.641
14592SOL    HW248624   4.122   6.834   1.803
14593SOL     OW48625   4.835   7.362   0.237
14593SOL    HW148626   4.775   7.300   0.287
14593SOL    HW248627   4.866   7.318   0.152
14594SOL     OW48628   3.926   5.871   1.498
14594SOL    HW148629   3.846   5.931   1.485
14594SOL    HW248630   3.916   5.822   1.584
14595SOL     OW48631   5.356   6.963   0.081
14595SOL    HW148632   5.324   7.057   0.071
14595SOL    HW248633   5.280   6.900   0.069
14596SOL     OW48634   4.188   7.329   0.323
14596SOL    HW148635   4.221   7.368   0.409
14596SOL    HW248636   4.264   7.322   0.258
14597SOL     OW48637   5.124   5.693   0.426
14597SOL    HW148638   5.100   5.656   0.336
14597SOL    HW248639   5.223   5.709   0.430
14598SOL     OW48640   3.973   7.371   1.241
14598SOL    HW148641   4.030   7.306   1.291
14598SOL    HW248642   3.957   7.338   1.148
14599SOL     OW48643   4.664   7.284   0.904
14599SOL    HW148644   4.744   7.227   0.925
14599SOL    HW248645   4.615   7.244   0.827
14600SOL     OW48646   4.106   6.286   0.480
14600SOL    HW148647   4.151   6.196   0.477
14600SOL    HW248648   4.012   6.275   0.513
14601SOL     OW48649   5.271   5.808   1.729
14601SOL    HW148650   5.266   5.845   1.821
14601SOL    HW248651   5.199   5.739   1.717
14602SOL     OW48652   4.338   5.708   0.117
14602SOL    HW148653   4.436   5.686   0.124
14602SOL    HW248654   4.307   5.691   0.024
14603SOL     OW48655   4.505   5.850   1.749
14603SOL    HW148656   4.572   5.789   1.792
14603SOL    HW248657   4.432   5.869   1.814
14604SOL     OW48658   4.612   7.100   1.195
14604SOL    HW148659   4.589   7.075   1.101
14604SOL    HW248660   4.673   7.031   1.234
14605SOL     OW48661   5.075   6.176   1.433
14605SOL    HW148662   5.103   6.133   1.518
14605SOL    HW248663   5.100   6.272   1.434
14606SOL     OW48664   4.527   6.988   0.924
14606SOL    HW148665   4.617   7.002   0.882
14606SOL    HW248666   4.456   6.990   0.853
14607SOL     OW48667   4.646   6.089   0.899
14607SOL    HW148668   4.621   6.080   0.803
14607SOL    HW248669   4.694   6.007   0.930
14608SOL     OW48670   4.263   5.650   0.512
14608SOL    HW148671   4.182   5.651   0.570
14608SOL    HW248672   4.266   5.733   0.457
14609SOL     OW48673   5.158   6.774   0.041
14609SOL    HW148674   5.190   6.698   0.098
14609SOL    HW248675   5.066   6.801   0.071
14610SOL     OW48676   4.659   5.822   0.480
14610SOL    HW148677   4.611   5.863   0.402
14610SOL    HW248678   4.758   5.820   0.461
14611SOL     OW48679   4.800   6.269   1.464
14611SOL    HW148680   4.720   6.208   1.467
14611SOL    HW248681   4.881   6.216   1.440
14612SOL     OW48682   4.951   7.156   0.793
14612SOL    HW148683   4.972   7.230   0.728
14612SOL    HW248684   5.019   7.156   0.866
14613SOL     OW48685   4.183   6.738   0.741
14613SOL    HW148686   4.112   6.711   0.806
14613SOL    HW248687   4.157   6.710   0.648
14614SOL     OW48688   4.995   7.383   0.591
14614SOL    HW148689   5.039   7.447   0.527
14614SOL    HW248690   4.945   7.435   0.661
14615SOL     OW48691   4.756   6.135   0.016
14615SOL    HW148692   4.715   6.217  -0.023
14615SOL    HW248693   4.820   6.161   0.089
14616SOL     OW48694   3.802   6.142   1.386
14616SOL    HW148695   3.894   6.141   1.345
14616SOL    HW248696   3.796   6.216   1.453
14617SOL     OW48697   4.285   5.808   1.147
14617SOL    HW148698   4.323   5.724   1.184
14617SOL    HW248699   4.197   5.827   1.191
14618SOL     OW48700   4.590   6.040   0.642
14618SOL    HW148701   4.558   6.112   0.580
14618SOL    HW248702   4.614   5.959   0.589
14619SOL     OW48703   5.153   6.759   0.867
14619SOL    HW148704   5.098   6.675   0.860
14619SOL    HW248705   5.179   6.788   0.775
14620SOL     OW48706   5.190   6.176   0.992
14620SOL    HW148707   5.160   6.081   0.999
14620SOL    HW248708   5.263   6.192   1.058
14621SOL     OW48709   5.581   6.419   0.377
14621SOL    HW148710   5.623   6.355   0.441
14621SOL    HW248711   5.543   6.368   0.299
14622SOL     OW48712   5.388   6.866   0.657
14622SOL    HW148713   5.487   6.874   0.671
14622SOL    HW248714   5.343   6.950   0.688
14623SOL     OW48715   4.251   5.842   0.328
14623SOL    HW148716   4.278   5.783   0.253
14623SOL    HW248717   4.251   5.937   0.297
14624SOL     OW48718   5.478   6.809   1.588
14624SOL    HW148719   5.569   6.770   1.575
14624SOL    HW248720   5.486   6.905   1.612
14625SOL     OW48721   4.788   6.933   1.340
14625SOL    HW148722   4.708   6.910   1.395
14625SOL    HW248723   4.871   6.907   1.389
14626SOL     OW48724   5.316   7.215   1.625
14626SOL    HW148725   5.343   7.249   1.535
14626SOL    HW248726   5.395   7.177   1.671
14627SOL     OW48727   4.835   6.781   1.100
14627SOL    HW148728   4.795   6.825   1.181
14627SOL    HW248729   4.794   6.818   1.017
14628SOL     OW48730   5.362   6.685   1.079
14628SOL    HW148731   5.367   6.766   1.138
14628SOL    HW248732   5.276   6.687   1.028
14629SOL     OW48733   4.639   5.675   1.402
14629SOL    HW148734   4.664   5.655   1.307
14629SOL    HW248735   4.711   5.731   1.444
14630SOL     OW48736   4.704   6.702   1.719
14630SOL    HW148737   4.605   6.708   1.729
14630SOL    HW248738   4.727   6.622   1.663
14631SOL     OW48739   4.429   6.636   0.368
14631SOL    HW148740   4.415   6.643   0.467
14631SOL    HW248741   4.513   6.585   0.350
14632SOL     OW48742   4.134   6.399   1.251
14632SOL    HW148743   4.220   6.411   1.301
14632SOL    HW248744   4.092   6.312   1.278
14633SOL     OW48745   4.998   5.972   1.262
14633SOL    HW148746   5.019   6.046   1.326
14633SOL    HW248747   4.909   5.989   1.219
14634SOL     OW48748   3.788   7.150   1.331
14634SOL    HW148749   3.742   7.232   1.297
14634SOL    HW248750   3.886   7.169   1.340
14635SOL     OW48751   4.290   6.123   0.865
14635SOL    HW148752   4.302   6.189   0.791
14635SOL    HW248753   4.336   6.157   0.948
14636SOL     OW48754   4.976   6.934   0.388
14636SOL    HW148755   5.026   7.011   0.428
14636SOL    HW248756   4.881   6.936   0.420
14637SOL     OW48757   4.996   7.031   1.142
14637SOL    HW148758   5.043   7.044   1.229
14637SOL    HW248759   4.930   6.957   1.151
14638SOL     OW48760   5.306   6.225   0.472
14638SOL    HW148761   5.275   6.286   0.545
14638SOL    HW248762   5.356   6.277   0.403
14639SOL     OW48763   4.078   7.096   1.329
14639SOL    HW148764   4.057   7.052   1.242
14639SOL    HW248765   4.175   7.122   1.332
14640SOL     OW48766   4.126   6.337   1.598
14640SOL    HW148767   4.194   6.392   1.551
14640SOL    HW248768   4.166   6.249   1.625
14641SOL     OW48769   5.311   6.365   1.670
14641SOL    HW148770   5.219   6.403   1.665
14641SOL    HW248771   5.371   6.412   1.605
14642SOL     OW48772   4.737   5.691   1.770
14642SOL    HW148773   4.743   5.776   1.718
14642SOL    HW248774   4.769   5.615   1.713
14643SOL     OW48775   4.228   5.636   1.740
14643SOL    HW148776   4.186   5.579   1.670
14643SOL    HW248777   4.162   5.705   1.772
14644SOL     OW48778   4.297   6.456   1.029
14644SOL    HW148779   4.341   6.545   1.020
14644SOL    HW248780   4.234   6.456   1.106
14645SOL     OW48781   5.084   6.448   1.045
14645SOL    HW148782   5.009   6.448   0.979
14645SOL    HW248783   5.121   6.356   1.054
14646SOL     OW48784   4.031   5.799   1.231
14646SOL    HW148785   4.008   5.836   1.321
14646SOL    HW248786   4.001   5.704   1.225
14647SOL     OW48787   3.761   6.896   1.282
14647SOL    HW148788   3.814   6.847   1.350
14647SOL    HW248789   3.783   6.994   1.287
14648SOL     OW48790   4.456   6.220   1.064
14648SOL    HW148791   4.515   6.194   0.988
14648SOL    HW248792   4.428   6.316   1.053
14649SOL     OW48793   5.452   6.521   1.854
14649SOL    HW148794   5.406   6.514   1.765
14649SOL    HW248795   5.390   6.565   1.920
14650SOL     OW48796   4.031   5.649   0.618
14650SOL    HW148797   4.020   5.743   0.651
14650SOL    HW248798   4.026   5.586   0.695
14651SOL     OW48799   4.747   6.352   0.966
14651SOL    HW148800   4.762   6.373   1.062
14651SOL    HW248801   4.717   6.257   0.957
14652SOL     OW48802   4.704   7.159   1.700
14652SOL    HW148803   4.684   7.203   1.612
14652SOL    HW248804   4.743   7.068   1.684
14653SOL     OW48805   5.583   7.104   1.605
14653SOL    HW148806   5.597   7.131   1.510
14653SOL    HW248807   5.666   7.126   1.658
14654SOL     OW48808   4.074   6.484   1.804
14654SOL    HW148809   4.150   6.528   1.852
14654SOL    HW248810   4.109   6.437   1.722
14655SOL     OW48811   4.792   6.919   0.849
14655SOL    HW148812   4.799   6.835   0.794
14655SOL    HW248813   4.854   6.988   0.813
14656SOL     OW48814   4.043   6.396   0.949
14656SOL    HW148815   4.136   6.432   0.954
14656SOL    HW248816   4.037   6.311   1.001
14657SOL     OW48817   4.063   6.095   1.006
14657SOL    HW148818   4.011   6.012   0.989
14657SOL    HW248819   4.140   6.100   0.942
14658SOL     OW48820   4.862   5.966   1.678
14658SOL    HW148821   4.817   6.029   1.742
14658SOL    HW248822   4.955   5.997   1.661
14659SOL     OW48823   4.884   5.793   1.477
14659SOL    HW148824   4.884   5.857   1.554
14659SOL    HW248825   4.912   5.841   1.394
14660SOL     OW48826   3.732   6.912   0.200
14660SOL    HW148827   3.639   6.933   0.169
14660SOL    HW248828   3.742   6.813   0.213
14661SOL     OW48829   3.812   7.387   0.927
14661SOL    HW148830   3.770   7.301   0.900
14661SOL    HW248831   3.906   7.390   0.893
14662SOL     OW48832   4.228   7.154   0.910
14662SOL    HW148833   4.294   7.228   0.919
14662SOL    HW248834   4.272   7.075   0.868
14663SOL     OW48835   4.726   6.382   1.238
14663SOL    HW148836   4.767   6.350   1.324
14663SOL    HW248837   4.630   6.355   1.235
14664SOL     OW48838   3.764   6.130   1.114
14664SOL    HW148839   3.849   6.097   1.073
14664SOL    HW248840   3.777   6.145   1.212
14665SOL     OW48841   3.913   6.106   1.722
14665SOL    HW148842   3.972   6.066   1.652
14665SOL    HW248843   3.855   6.177   1.681
14666SOL     OW48844   5.093   6.536   1.660
14666SOL    HW148845   5.132   6.625   1.680
14666SOL    HW248846   5.103   6.516   1.563
14667SOL     OW48847   4.539   6.158   0.325
14667SOL    HW148848   4.546   6.069   0.279
14667SOL    HW248849   4.445   6.192   0.317
14668SOL     OW48850   5.381   6.190   1.206
14668SOL    HW148851   5.343   6.121   1.268
14668SOL    HW248852   5.463   6.154   1.162
14669SOL     OW48853   3.976   7.150   1.744
14669SOL    HW148854   3.946   7.207   1.820
14669SOL    HW248855   3.969   7.053   1.770
14670SOL     OW48856   4.395   6.050   1.269
14670SOL    HW148857   4.361   5.961   1.239
14670SOL    HW248858   4.421   6.104   1.189
14671SOL     OW48859   4.654   7.264   1.465
14671SOL    HW148860   4.630   7.246   1.370
14671SOL    HW248861   4.684   7.358   1.475
14672SOL     OW48862   4.197   6.086   0.191
14672SOL    HW148863   4.258   6.166   0.195
14672SOL    HW248864   4.102   6.117   0.198
14673SOL     OW48865   3.883   6.723   1.466
14673SOL    HW148866   3.905   6.662   1.542
14673SOL    HW248867   3.893   6.674   1.380
14674SOL     OW48868   5.071   6.645   1.234
14674SOL    HW148869   5.095   6.582   1.160
14674SOL    HW248870   4.981   6.685   1.216
14675SOL     OW48871   5.483   7.333   1.154
14675SOL    HW148872   5.544   7.363   1.081
14675SOL    HW248873   5.445   7.244   1.132
14676SOL     OW48874   4.976   7.317   1.128
14676SOL    HW148875   5.060   7.322   1.074
14676SOL    HW248876   4.953   7.221   1.146
14677SOL     OW48877   3.807   6.844   1.022
14677SOL    HW148878   3.802   6.843   1.122
14677SOL    HW248879   3.724   6.803   0.984
14678SOL     OW48880   4.412   7.248   1.716
14678SOL    HW148881   4.356   7.329   1.725
14678SOL    HW248882   4.464   7.252   1.630
14679SOL     OW48883   4.627   5.672   0.133
14679SOL    HW148884   4.678   5.673   0.047
14679SOL    HW248885   4.683   5.630   0.204
14680SOL     OW48886   5.450   5.721   0.523
14680SOL    HW148887   5.523   5.704   0.456
14680SOL    HW248888   5.419   5.634   0.561
14681SOL     OW48889   5.112   7.159   0.477
14681SOL    HW148890   5.179   7.171   0.403
14681SOL    HW248891   5.072   7.248   0.500
14682SOL     OW48892   3.854   7.380   1.851
14682SOL    HW148893   3.813   7.306   1.904
14682SOL    HW248894   3.918   7.431   1.909
14683SOL     OW48895   5.004   6.513   0.672
14683SOL    HW148896   5.064   6.432   0.674
14683SOL    HW248897   5.044   6.582   0.612
14684SOL     OW48898   4.554   6.859   1.422
14684SOL    HW148899   4.549   6.892   1.517
14684SOL    HW248900   4.468   6.878   1.376
14685SOL     OW48901   4.396   7.202   0.154
14685SOL    HW148902   4.405   7.212   0.055
14685SOL    HW248903   4.356   7.113   0.175
14686SOL     OW48904   5.374   7.306   1.394
14686SOL    HW148905   5.427   7.316   1.310
14686SOL    HW248906   5.347   7.396   1.428
14687SOL     OW48907   5.565   5.761   0.963
14687SOL    HW148908   5.604   5.676   0.927
14687SOL    HW248909   5.467   5.763   0.944
14688SOL     OW48910   4.918   7.198   0.031
14688SOL    HW148911   4.924   7.105   0.068
14688SOL    HW248912   4.859   7.198  -0.049
14689SOL     OW48913   4.546   6.588   1.372
14689SOL    HW148914   4.586   6.587   1.280
14689SOL    HW248915   4.556   6.680   1.412
14690SOL     OW48916   4.640   6.496   0.291
14690SOL    HW148917   4.703   6.534   0.223
14690SOL    HW248918   4.680   6.413   0.330
14691SOL     OW48919   5.228   7.193   0.044
14691SOL    HW148920   5.136   7.230   0.051
14691SOL    HW248921   5.266   7.213  -0.046
14692SOL     OW48922   4.096   6.874   1.490
14692SOL    HW148923   4.083   6.967   1.456
14692SOL    HW248924   4.012   6.822   1.477
14693SOL     OW48925   5.338   6.878   1.289
14693SOL    HW148926   5.398   6.881   1.369
14693SOL    HW248927   5.263   6.942   1.302
14694SOL     OW48928   4.763   6.684   0.696
14694SOL    HW148929   4.693   6.637   0.750
14694SOL    HW248930   4.822   6.616   0.653
14695SOL     OW48931   4.738   5.822   0.971
14695SOL    HW148932   4.730   5.786   0.878
14695SOL    HW248933   4.736   5.746   1.036
14696SOL     OW48934   4.314   7.073   0.491
14696SOL    HW148935   4.356   7.015   0.421
14696SOL    HW248936   4.270   7.152   0.447
14697SOL     OW48937   5.433   5.971   1.381
14697SOL    HW148938   5.506   6.040   1.385
14697SOL    HW248939   5.461   5.896   1.322
14698SOL     OW48940   3.979   6.934   0.290
14698SOL    HW148941   3.883   6.935   0.263
14698SOL    HW248942   3.991   6.987   0.374
14699SOL     OW48943   3.829   6.599   1.726
14699SOL    HW148944   3.752   6.566   1.780
14699SOL    HW248945   3.914   6.569   1.768
14700SOL     OW48946   4.396   5.789   1.489
14700SOL    HW148947   4.486   5.773   1.449
14700SOL    HW248948   4.404   5.794   1.588
14701SOL     OW48949   3.799   5.931   0.033
14701SOL    HW148950   3.707   5.903   0.004
14701SOL    HW248951   3.830   6.008  -0.023
14702SOL     OW48952   5.164   6.442   1.398
14702SOL    HW148953   5.107   6.494   1.335
14702SOL    HW248954   5.260   6.454   1.374
14703SOL     OW48955   3.796   5.752   0.318
14703SOL    HW148956   3.779   5.835   0.264
14703SOL    HW248957   3.886   5.715   0.296
14704SOL     OW48958   4.907   6.921   0.119
14704SOL    HW148959   4.808   6.910   0.121
14704SOL    HW248960   4.941   6.936   0.212
14705SOL     OW48961   4.337   6.428   1.431
14705SOL    HW148962   4.393   6.509   1.414
14705SOL    HW248963   4.396   6.348   1.434
14706SOL     OW48964   5.217   7.353   0.959
14706SOL    HW148965   5.250   7.417   0.890
14706SOL    HW248966   5.283   7.347   1.034
14707SOL     OW48967   4.440   6.151   1.708
14707SOL    HW148968   4.459   6.216   1.782
14707SOL    HW248969   4.500   6.071   1.717
14708SOL     OW48970   5.174   6.806   1.633
14708SOL    HW148971   5.165   6.796   1.732
14708SOL    HW248972   5.270   6.799   1.607
14709SOL     OW48973   4.114   7.327   1.560
14709SOL    HW148974   4.023   7.368   1.558
14709SOL    HW248975   4.107   7.233   1.592
14710SOL     OW48976   5.398   6.469   1.254
14710SOL    HW148977   5.371   6.380   1.217
14710SOL    HW248978   5.399   6.537   1.181
14711SOL     OW48979   4.949   5.911   0.449
14711SOL    HW148980   5.014   5.837   0.438
14711SOL    HW248981   4.969   5.961   0.533
14712SOL     OW48982   4.318   6.331   0.652
14712SOL    HW148983   4.368   6.416   0.633
14712SOL    HW248984   4.230   6.333   0.604
14713SOL     OW48985   5.501   5.928   1.642
14713SOL    HW148986   5.484   5.959   1.548
14713SOL    HW248987   5.417   5.891   1.680
14714SOL     OW48988   5.454   6.520   1.517
14714SOL    HW148989   5.492   6.611   1.532
14714SOL    HW248990   5.446   6.503   1.418
14715SOL     OW48991   4.583   6.960   0.016
14715SOL    HW148992   4.537   6.975   0.104
14715SOL    HW248993   4.627   7.045  -0.014
14716SOL     OW48994   4.385   7.376   0.953
14716SOL    HW148995   4.339   7.464   0.940
14716SOL    HW248996   4.484   7.388   0.946
14717SOL     OW48997   4.583   6.542   0.861
14717SOL    HW148998   4.637   6.473   0.909
14717SOL    HW248999   4.551   6.611   0.927
14718SOL     OW49000   4.807   6.570   0.087
14718SOL    HW149001   4.784   6.623   0.005
14718SOL    HW249002   4.888   6.514   0.068
14719SOL     OW49003   5.585   7.155   0.851
14719SOL    HW149004   5.514   7.143   0.781
14719SOL    HW249005   5.586   7.076   0.911
14720SOL     OW49006   3.945   6.900   1.844
14720SOL    HW149007   3.880   6.827   1.823
14720SOL    HW249008   3.949   6.914   1.942
14721SOL     OW49009   4.396   6.977   1.624
14721SOL    HW149010   4.318   6.927   1.662
14721SOL    HW249011   4.393   7.072   1.655
14722SOL     OW49012   5.548   5.778   1.227
14722SOL    HW149013   5.544   5.688   1.271
14722SOL    HW249014   5.551   5.767   1.128
14723SOL     OW49015   4.152   6.010   0.520
14723SOL    HW149016   4.182   5.938   0.458
14723SOL    HW249017   4.113   5.970   0.603
14724SOL     OW49018   5.429   7.073   1.104
14724SOL    HW149019   5.336   7.048   1.077
14724SOL    HW249020   5.455   7.023   1.186
14725SOL     OW49021   4.041   6.133   1.280
14725SOL    HW149022   4.079   6.074   1.352
14725SOL    HW249023   4.081   6.107   1.192
14726SOL     OW49024   4.536   7.172   0.687
14726SOL    HW149025   4.568   7.182   0.593
14726SOL    HW249026   4.457   7.110   0.689
14727SOL     OW49027   5.148   5.800   1.112
14727SOL    HW149028   5.200   5.735   1.167
14727SOL    HW249029   5.099   5.863   1.173
14728SOL     OW49030   4.725   5.620   1.154
14728SOL    HW149031   4.662   5.548   1.123
14728SOL    HW249032   4.818   5.584   1.154
14729SOL     OW49033   4.494   6.916   0.301
14729SOL    HW149034   4.448   6.829   0.318
14729SOL    HW249035   4.585   6.913   0.342
14730SOL     OW49036   4.342   7.153   1.284
14730SOL    HW149037   4.337   7.235   1.341
14730SOL    HW249038   4.431   7.150   1.239
14731SOL     OW49039   5.076   5.638   0.168
14731SOL    HW149040   5.111   5.597   0.084
14731SOL    HW249041   4.986   5.600   0.188
14732SOL     OW49042   5.024   6.039   0.691
14732SOL    HW149043   4.965   6.119   0.695
14732SOL    HW249044   5.039   6.004   0.784
14733SOL     OW49045   5.317   5.807   0.882
14733SOL    HW149046   5.233   5.806   0.936
14733SOL    HW249047   5.319   5.890   0.826
14734SOL     OW49048   3.763   6.663   0.300
14734SOL    HW149049   3.862   6.652   0.291
14734SOL    HW249050   3.723   6.577   0.332
14735SOL     OW49051   4.599   7.232   0.337
14735SOL    HW149052   4.522   7.197   0.283
14735SOL    HW249053   4.567   7.303   0.399
14736SOL     OW49054   3.954   6.214   1.975
14736SOL    HW149055   3.861   6.212   2.012
14736SOL    HW249056   3.955   6.175   1.883
14737SOL     OW49057   3.949   5.861   2.858
14737SOL    HW149058   3.984   5.844   2.950
14737SOL    HW249059   3.861   5.816   2.846
14738SOL     OW49060   3.743   5.954   2.509
14738SOL    HW149061   3.661   5.997   2.548
14738SOL    HW249062   3.715   5.881   2.446
14739SOL     OW49063   4.293   6.861   3.027
14739SOL    HW149064   4.200   6.854   2.990
14739SOL    HW249065   4.304   6.950   3.071
14740SOL     OW49066   5.279   7.097   2.565
14740SOL    HW149067   5.222   7.081   2.646
14740SOL    HW249068   5.220   7.107   2.485
14741SOL     OW49069   4.859   6.289   2.579
14741SOL    HW149070   4.916   6.367   2.554
14741SOL    HW249071   4.799   6.315   2.655
14742SOL     OW49072   5.479   6.193   2.093
14742SOL    HW149073   5.467   6.180   1.994
14742SOL    HW249074   5.449   6.112   2.142
14743SOL     OW49075   4.492   6.730   2.885
14743SOL    HW149076   4.414   6.747   2.945
14743SOL    HW249077   4.526   6.817   2.849
14744SOL     OW49078   4.574   6.384   3.685
14744SOL    HW149079   4.570   6.460   3.750
14744SOL    HW249080   4.596   6.420   3.594
14745SOL     OW49081   4.409   6.598   2.527
14745SOL    HW149082   4.478   6.582   2.597
14745SOL    HW249083   4.336   6.655   2.565
14746SOL     OW49084   4.410   6.747   3.665
14746SOL    HW149085   4.470   6.826   3.679
14746SOL    HW249086   4.324   6.778   3.624
14747SOL     OW49087   4.059   7.021   2.923
14747SOL    HW149088   3.981   6.990   2.870
14747SOL    HW249089   4.117   7.079   2.866
14748SOL     OW49090   5.184   7.091   3.201
14748SOL    HW149091   5.208   7.185   3.227
14748SOL    HW249092   5.168   7.037   3.283
14749SOL     OW49093   4.162   5.978   3.361
14749SOL    HW149094   4.244   5.922   3.370
14749SOL    HW249095   4.081   5.920   3.365
14750SOL     OW49096   5.327   6.033   2.599
14750SOL    HW149097   5.253   6.079   2.549
14750SOL    HW249098   5.378   6.101   2.652
14751SOL     OW49099   3.955   7.299   2.345
14751SOL    HW149100   3.989   7.376   2.399
14751SOL    HW249101   3.999   7.299   2.255
14752SOL     OW49102   4.851   6.927   3.552
14752SOL    HW149103   4.898   6.927   3.640
14752SOL    HW249104   4.803   6.840   3.541
14753SOL     OW49105   3.954   7.020   2.400
14753SOL    HW149106   3.928   7.116   2.400
14753SOL    HW249107   3.883   6.966   2.445
14754SOL     OW49108   4.344   7.372   3.301
14754SOL    HW149109   4.252   7.355   3.336
14754SOL    HW249110   4.372   7.464   3.327
14755SOL     OW49111   5.318   5.700   3.342
14755SOL    HW149112   5.300   5.767   3.270
14755SOL    HW249113   5.315   5.746   3.431
14756SOL     OW49114   3.846   6.229   2.425
14756SOL    HW149115   3.801   6.141   2.442
14756SOL    HW249116   3.845   6.283   2.509
14757SOL     OW49117   5.566   7.353   2.221
14757SOL    HW149118   5.620   7.324   2.301
14757SOL    HW249119   5.596   7.443   2.192
14758SOL     OW49120   3.751   7.182   1.979
14758SOL    HW149121   3.732   7.086   2.000
14758SOL    HW249122   3.718   7.240   2.054
14759SOL     OW49123   5.413   6.508   2.474
14759SOL    HW149124   5.508   6.479   2.482
14759SOL    HW249125   5.405   6.573   2.399
14760SOL     OW49126   5.365   6.694   2.294
14760SOL    HW149127   5.451   6.696   2.242
14760SOL    HW249128   5.379   6.741   2.382
14761SOL     OW49129   3.837   6.323   3.459
14761SOL    HW149130   3.925   6.310   3.504
14761SOL    HW249131   3.824   6.420   3.437
14762SOL     OW49132   4.337   6.951   2.588
14762SOL    HW149133   4.288   6.864   2.597
14762SOL    HW249134   4.314   6.994   2.501
14763SOL     OW49135   5.017   6.814   3.285
14763SOL    HW149136   5.054   6.741   3.227
14763SOL    HW249137   5.069   6.819   3.370
14764SOL     OW49138   4.533   5.590   2.364
14764SOL    HW149139   4.573   5.681   2.355
14764SOL    HW249140   4.433   5.598   2.370
14765SOL     OW49141   3.921   6.562   3.126
14765SOL    HW149142   4.010   6.517   3.112
14765SOL    HW249143   3.848   6.497   3.107
14766SOL     OW49144   5.249   6.585   2.052
14766SOL    HW149145   5.186   6.509   2.065
14766SOL    HW249146   5.297   6.603   2.138
14767SOL     OW49147   4.911   7.378   3.478
14767SOL    HW149148   4.935   7.438   3.402
14767SOL    HW249149   4.918   7.283   3.448
14768SOL     OW49150   4.041   5.837   3.663
14768SOL    HW149151   4.112   5.908   3.669
14768SOL    HW249152   3.953   5.876   3.691
14769SOL     OW49153   5.190   7.003   2.815
14769SOL    HW149154   5.131   7.009   2.895
14769SOL    HW249155   5.175   6.915   2.769
14770SOL     OW49156   5.391   7.300   2.434
14770SOL    HW149157   5.350   7.277   2.346
14770SOL    HW249158   5.373   7.226   2.499
14771SOL     OW49159   4.322   6.315   2.132
14771SOL    HW149160   4.346   6.384   2.064
14771SOL    HW249161   4.244   6.348   2.186
14772SOL     OW49162   5.005   5.931   2.806
14772SOL    HW149163   4.919   5.881   2.793
14772SOL    HW249164   5.067   5.877   2.862
14773SOL     OW49165   5.300   7.248   2.169
14773SOL    HW149166   5.389   7.294   2.172
14773SOL    HW249167   5.279   7.224   2.074
14774SOL     OW49168   4.531   6.191   3.327
14774SOL    HW149169   4.484   6.188   3.416
14774SOL    HW249170   4.480   6.136   3.261
14775SOL     OW49171   5.118   6.055   3.536
14775SOL    HW149172   5.098   6.098   3.624
14775SOL    HW249173   5.196   5.993   3.545
14776SOL     OW49174   4.697   6.476   3.434
14776SOL    HW149175   4.743   6.392   3.405
14776SOL    HW249176   4.641   6.510   3.359
14777SOL     OW49177   4.715   5.996   3.104
14777SOL    HW149178   4.638   6.030   3.158
14777SOL    HW249179   4.681   5.945   3.025
14778SOL     OW49180   4.765   6.287   2.291
14778SOL    HW149181   4.791   6.283   2.387
14778SOL    HW249182   4.680   6.236   2.277
14779SOL     OW49183   3.800   6.397   2.651
14779SOL    HW149184   3.899   6.385   2.660
14779SOL    HW249185   3.776   6.492   2.672
14780SOL     OW49186   3.854   7.407   3.433
14780SOL    HW149187   3.844   7.392   3.532
14780SOL    HW249188   3.768   7.443   3.397
14781SOL     OW49189   4.589   5.934   2.057
14781SOL    HW149190   4.648   5.997   2.008
14781SOL    HW249191   4.608   5.840   2.028
14782SOL     OW49192   5.443   6.171   3.693
14782SOL    HW149193   5.417   6.260   3.657
14782SOL    HW249194   5.441   6.103   3.620
14783SOL     OW49195   5.086   6.730   2.407
14783SOL    HW149196   5.169   6.701   2.359
14783SOL    HW249197   5.037   6.797   2.351
14784SOL     OW49198   4.274   5.782   2.747
14784SOL    HW149199   4.269   5.777   2.847
14784SOL    HW249200   4.276   5.878   2.718
14785SOL     OW49201   4.075   7.387   2.715
14785SOL    HW149202   4.125   7.301   2.721
14785SOL    HW249203   4.140   7.464   2.712
14786SOL     OW49204   5.519   6.652   2.735
14786SOL    HW149205   5.457   6.637   2.659
14786SOL    HW249206   5.467   6.663   2.820
14787SOL     OW49207   4.951   7.136   3.368
14787SOL    HW149208   4.957   7.059   3.432
14787SOL    HW249209   4.899   7.110   3.288
14788SOL     OW49210   4.045   6.529   2.104
14788SOL    HW149211   4.127   6.568   2.062
14788SOL    HW249212   4.018   6.447   2.055
14789SOL     OW49213   5.182   6.321   2.590
14789SOL    HW149214   5.177   6.256   2.665
14789SOL    HW249215   5.262   6.380   2.603
14790SOL     OW49216   4.185   6.852   3.589
14790SOL    HW149217   4.135   6.853   3.503
14790SOL    HW249218   4.122   6.834   3.665
14791SOL     OW49219   4.835   7.362   2.099
14791SOL    HW149220   4.775   7.300   2.149
14791SOL    HW249221   4.866   7.318   2.014
14792SOL     OW49222   3.926   5.871   3.360
14792SOL    HW149223   3.846   5.931   3.347
14792SOL    HW249224   3.916   5.822   3.446
14793SOL     OW49225   5.356   6.963   1.943
14793SOL    HW149226   5.324   7.057   1.933
14793SOL    HW249227   5.280   6.900   1.931
14794SOL     OW49228   4.188   7.329   2.185
14794SOL    HW149229   4.221   7.368   2.271
14794SOL    HW249230   4.264   7.322   2.120
14795SOL     OW49231   5.124   5.693   2.288
14795SOL    HW149232   5.100   5.656   2.198
14795SOL    HW249233   5.223   5.709   2.292
14796SOL     OW49234   3.973   7.371   3.103
14796SOL    HW149235   4.030   7.306   3.153
14796SOL    HW249236   3.957   7.338   3.010
14797SOL     OW49237   4.664   7.284   2.766
14797SOL    HW149238   4.744   7.227   2.787
14797SOL    HW249239   4.615   7.244   2.689
14798SOL     OW49240   4.106   6.286   2.342
14798SOL    HW149241   4.151   6.196   2.339
14798SOL    HW249242   4.012   6.275   2.375
14799SOL     OW49243   4.338   5.708   1.979
14799SOL    HW149244   4.436   5.686   1.986
14799SOL    HW249245   4.307   5.691   1.886
14800SOL     OW49246   4.505   5.850   3.611
14800SOL    HW149247   4.572   5.789   3.654
14800SOL    HW249248   4.432   5.869   3.676
14801SOL     OW49249   4.612   7.100   3.057
14801SOL    HW149250   4.589   7.075   2.963
14801SOL    HW249251   4.673   7.031   3.096
14802SOL     OW49252   5.075   6.176   3.295
14802SOL    HW149253   5.103   6.133   3.380
14802SOL    HW249254   5.100   6.272   3.296
14803SOL     OW49255   4.527   6.988   2.786
14803SOL    HW149256   4.617   7.002   2.744
14803SOL    HW249257   4.456   6.990   2.715
14804SOL     OW49258   4.646   6.089   2.761
14804SOL    HW149259   4.621   6.080   2.665
14804SOL    HW249260   4.694   6.007   2.792
14805SOL     OW49261   4.263   5.650   2.374
14805SOL    HW149262   4.182   5.651   2.432
14805SOL    HW249263   4.266   5.733   2.319
14806SOL     OW49264   5.158   6.774   1.903
14806SOL    HW149265   5.190   6.698   1.960
14806SOL    HW249266   5.066   6.801   1.933
14807SOL     OW49267   4.800   6.269   3.326
14807SOL    HW149268   4.720   6.208   3.329
14807SOL    HW249269   4.881   6.216   3.302
14808SOL     OW49270   4.951   7.156   2.655
14808SOL    HW149271   4.972   7.230   2.590
14808SOL    HW249272   5.019   7.156   2.728
14809SOL     OW49273   4.183   6.738   2.603
14809SOL    HW149274   4.112   6.711   2.668
14809SOL    HW249275   4.157   6.710   2.510
14810SOL     OW49276   4.995   7.383   2.453
14810SOL    HW149277   5.039   7.447   2.389
14810SOL    HW249278   4.945   7.435   2.523
14811SOL     OW49279   4.756   6.135   1.878
14811SOL    HW149280   4.715   6.217   1.839
14811SOL    HW249281   4.820   6.161   1.951
14812SOL     OW49282   3.802   6.142   3.248
14812SOL    HW149283   3.894   6.141   3.207
14812SOL    HW249284   3.796   6.216   3.315
14813SOL     OW49285   4.285   5.808   3.009
14813SOL    HW149286   4.323   5.724   3.046
14813SOL    HW249287   4.197   5.827   3.053
14814SOL     OW49288   4.590   6.040   2.504
14814SOL    HW149289   4.558   6.112   2.442
14814SOL    HW249290   4.614   5.959   2.451
14815SOL     OW49291   4.741   5.625   2.615
14815SOL    HW149292   4.669   5.630   2.546
14815SOL    HW249293   4.717   5.556   2.684
14816SOL     OW49294   5.153   6.759   2.729
14816SOL    HW149295   5.098   6.675   2.722
14816SOL    HW249296   5.179   6.788   2.637
14817SOL     OW49297   5.190   6.176   2.854
14817SOL    HW149298   5.160   6.081   2.861
14817SOL    HW249299   5.263   6.192   2.920
14818SOL     OW49300   5.581   6.419   2.239
14818SOL    HW149301   5.623   6.355   2.303
14818SOL    HW249302   5.543   6.368   2.161
14819SOL     OW49303   4.212   6.971   2.036
14819SOL    HW149304   4.125   6.956   2.083
14819SOL    HW249305   4.195   6.997   1.941
14820SOL     OW49306   5.388   6.866   2.519
14820SOL    HW149307   5.487   6.874   2.533
14820SOL    HW249308   5.343   6.950   2.550
14821SOL     OW49309   5.114   6.161   1.940
14821SOL    HW149310   5.060   6.140   2.021
14821SOL    HW249311   5.205   6.120   1.949
14822SOL     OW49312   4.251   5.842   2.190
14822SOL    HW149313   4.278   5.783   2.115
14822SOL    HW249314   4.251   5.937   2.159
14823SOL     OW49315   5.478   6.809   3.450
14823SOL    HW149316   5.569   6.770   3.437
14823SOL    HW249317   5.486   6.905   3.474
14824SOL     OW49318   4.788   6.933   3.202
14824SOL    HW149319   4.708   6.910   3.257
14824SOL    HW249320   4.871   6.907   3.251
14825SOL     OW49321   5.316   7.215   3.487
14825SOL    HW149322   5.343   7.249   3.397
14825SOL    HW249323   5.395   7.177   3.533
14826SOL     OW49324   4.835   6.781   2.962
14826SOL    HW149325   4.795   6.825   3.043
14826SOL    HW249326   4.794   6.818   2.879
14827SOL     OW49327   5.362   6.685   2.941
14827SOL    HW149328   5.367   6.766   3.000
14827SOL    HW249329   5.276   6.687   2.890
14828SOL     OW49330   4.639   5.675   3.264
14828SOL    HW149331   4.664   5.655   3.169
14828SOL    HW249332   4.711   5.731   3.306
14829SOL     OW49333   4.704   6.702   3.581
14829SOL    HW149334   4.605   6.708   3.591
14829SOL    HW249335   4.727   6.622   3.525
14830SOL     OW49336   4.429   6.636   2.230
14830SOL    HW149337   4.415   6.643   2.329
14830SOL    HW249338   4.513   6.585   2.212
14831SOL     OW49339   4.134   6.399   3.113
14831SOL    HW149340   4.220   6.411   3.163
14831SOL    HW249341   4.092   6.312   3.140
14832SOL     OW49342   4.998   5.972   3.124
14832SOL    HW149343   5.019   6.046   3.188
14832SOL    HW249344   4.909   5.989   3.081
14833SOL     OW49345   3.788   7.150   3.193
14833SOL    HW149346   3.742   7.232   3.159
14833SOL    HW249347   3.886   7.169   3.202
14834SOL     OW49348   4.091   6.686   2.363
14834SOL    HW149349   4.084   6.769   2.307
14834SOL    HW249350   4.095   6.606   2.303
14835SOL     OW49351   4.290   6.123   2.727
14835SOL    HW149352   4.302   6.189   2.653
14835SOL    HW249353   4.336   6.157   2.810
14836SOL     OW49354   4.976   6.934   2.250
14836SOL    HW149355   5.026   7.011   2.290
14836SOL    HW249356   4.881   6.936   2.282
14837SOL     OW49357   4.996   7.031   3.004
14837SOL    HW149358   5.043   7.044   3.091
14837SOL    HW249359   4.930   6.957   3.013
14838SOL     OW49360   5.306   6.225   2.334
14838SOL    HW149361   5.275   6.286   2.407
14838SOL    HW249362   5.356   6.277   2.265
14839SOL     OW49363   4.078   7.096   3.191
14839SOL    HW149364   4.057   7.052   3.104
14839SOL    HW249365   4.175   7.122   3.194
14840SOL     OW49366   4.126   6.337   3.460
14840SOL    HW149367   4.194   6.392   3.413
14840SOL    HW249368   4.166   6.249   3.487
14841SOL     OW49369   5.311   6.365   3.532
14841SOL    HW149370   5.219   6.403   3.527
14841SOL    HW249371   5.371   6.412   3.467
14842SOL     OW49372   4.737   5.691   3.632
14842SOL    HW149373   4.743   5.776   3.580
14842SOL    HW249374   4.769   5.615   3.575
14843SOL     OW49375   4.228   5.636   3.602
14843SOL    HW149376   4.186   5.579   3.532
14843SOL    HW249377   4.162   5.705   3.634
14844SOL     OW49378   4.297   6.456   2.891
14844SOL    HW149379   4.341   6.545   2.882
14844SOL    HW249380   4.234   6.456   2.968
14845SOL     OW49381   5.084   6.448   2.907
14845SOL    HW149382   5.009   6.448   2.841
14845SOL    HW249383   5.121   6.356   2.916
14846SOL     OW49384   4.933   6.111   2.137
14846SOL    HW149385   4.946   6.027   2.191
14846SOL    HW249386   4.904   6.185   2.197
14847SOL     OW49387   4.031   5.799   3.093
14847SOL    HW149388   4.008   5.836   3.183
14847SOL    HW249389   4.001   5.704   3.087
14848SOL     OW49390   3.761   6.896   3.144
14848SOL    HW149391   3.814   6.847   3.212
14848SOL    HW249392   3.783   6.994   3.149
14849SOL     OW49393   4.456   6.220   2.926
14849SOL    HW149394   4.515   6.194   2.850
14849SOL    HW249395   4.428   6.316   2.915
14850SOL     OW49396   5.452   6.521   3.716
14850SOL    HW149397   5.406   6.514   3.627
14850SOL    HW249398   5.390   6.565   3.782
14851SOL     OW49399   4.031   5.649   2.480
14851SOL    HW149400   4.020   5.743   2.513
14851SOL    HW249401   4.026   5.586   2.557
14852SOL     OW49402   5.346   5.953   2.236
14852SOL    HW149403   5.348   5.877   2.300
14852SOL    HW249404   5.298   6.030   2.276
14853SOL     OW49405   4.747   6.352   2.828
14853SOL    HW149406   4.762   6.373   2.924
14853SOL    HW249407   4.717   6.257   2.819
14854SOL     OW49408   5.583   7.104   3.467
14854SOL    HW149409   5.597   7.131   3.372
14854SOL    HW249410   5.666   7.126   3.520
14855SOL     OW49411   4.074   6.484   3.666
14855SOL    HW149412   4.150   6.528   3.714
14855SOL    HW249413   4.109   6.437   3.584
14856SOL     OW49414   5.264   5.860   1.987
14856SOL    HW149415   5.203   5.785   2.010
14856SOL    HW249416   5.286   5.912   2.070
14857SOL     OW49417   5.027   6.424   1.904
14857SOL    HW149418   5.061   6.331   1.919
14857SOL    HW249419   5.045   6.451   1.809
14858SOL     OW49420   4.792   6.919   2.711
14858SOL    HW149421   4.799   6.835   2.656
14858SOL    HW249422   4.854   6.988   2.675
14859SOL     OW49423   4.043   6.396   2.811
14859SOL    HW149424   4.136   6.432   2.816
14859SOL    HW249425   4.037   6.311   2.863
14860SOL     OW49426   4.063   6.095   2.868
14860SOL    HW149427   4.011   6.012   2.851
14860SOL    HW249428   4.140   6.100   2.804
14861SOL     OW49429   4.862   5.966   3.540
14861SOL    HW149430   4.817   6.029   3.604
14861SOL    HW249431   4.955   5.997   3.523
14862SOL     OW49432   4.884   5.793   3.339
14862SOL    HW149433   4.884   5.857   3.416
14862SOL    HW249434   4.912   5.841   3.256
14863SOL     OW49435   3.732   6.912   2.062
14863SOL    HW149436   3.639   6.933   2.031
14863SOL    HW249437   3.742   6.813   2.075
14864SOL     OW49438   3.812   7.387   2.789
14864SOL    HW149439   3.770   7.301   2.762
14864SOL    HW249440   3.906   7.390   2.755
14865SOL     OW49441   4.228   7.154   2.772
14865SOL    HW149442   4.294   7.228   2.781
14865SOL    HW249443   4.272   7.075   2.730
14866SOL     OW49444   4.726   6.382   3.100
14866SOL    HW149445   4.767   6.350   3.186
14866SOL    HW249446   4.630   6.355   3.097
14867SOL     OW49447   3.764   6.130   2.976
14867SOL    HW149448   3.849   6.097   2.935
14867SOL    HW249449   3.777   6.145   3.074
14868SOL     OW49450   3.913   6.106   3.584
14868SOL    HW149451   3.972   6.066   3.514
14868SOL    HW249452   3.855   6.177   3.543
14869SOL     OW49453   5.093   6.536   3.522
14869SOL    HW149454   5.132   6.625   3.542
14869SOL    HW249455   5.103   6.516   3.425
14870SOL     OW49456   4.539   6.158   2.187
14870SOL    HW149457   4.546   6.069   2.141
14870SOL    HW249458   4.445   6.192   2.179
14871SOL     OW49459   5.381   6.190   3.068
14871SOL    HW149460   5.343   6.121   3.130
14871SOL    HW249461   5.463   6.154   3.024
14872SOL     OW49462   3.976   7.150   3.606
14872SOL    HW149463   3.946   7.207   3.682
14872SOL    HW249464   3.969   7.053   3.632
14873SOL     OW49465   4.395   6.050   3.131
14873SOL    HW149466   4.361   5.961   3.101
14873SOL    HW249467   4.421   6.104   3.051
14874SOL     OW49468   4.654   7.264   3.327
14874SOL    HW149469   4.630   7.246   3.232
14874SOL    HW249470   4.684   7.358   3.337
14875SOL     OW49471   4.197   6.086   2.053
14875SOL    HW149472   4.258   6.166   2.057
14875SOL    HW249473   4.102   6.117   2.060
14876SOL     OW49474   3.883   6.723   3.328
14876SOL    HW149475   3.905   6.662   3.404
14876SOL    HW249476   3.893   6.674   3.242
14877SOL     OW49477   5.071   6.645   3.096
14877SOL    HW149478   5.095   6.582   3.022
14877SOL    HW249479   4.981   6.685   3.078
14878SOL     OW49480   5.026   6.441   2.171
14878SOL    HW149481   4.940   6.410   2.213
14878SOL    HW249482   5.022   6.427   2.072
14879SOL     OW49483   5.483   7.333   3.016
14879SOL    HW149484   5.544   7.363   2.943
14879SOL    HW249485   5.445   7.244   2.994
14880SOL     OW49486   4.976   7.317   2.990
14880SOL    HW149487   5.060   7.322   2.936
14880SOL    HW249488   4.953   7.221   3.008
14881SOL     OW49489   3.807   6.844   2.884
14881SOL    HW149490   3.802   6.843   2.984
14881SOL    HW249491   3.724   6.803   2.846
14882SOL     OW49492   4.412   7.248   3.578
14882SOL    HW149493   4.356   7.329   3.587
14882SOL    HW249494   4.464   7.252   3.492
14883SOL     OW49495   5.450   5.721   2.385
14883SOL    HW149496   5.523   5.704   2.318
14883SOL    HW249497   5.419   5.634   2.423
14884SOL     OW49498   5.112   7.159   2.339
14884SOL    HW149499   5.179   7.171   2.265
14884SOL    HW249500   5.072   7.248   2.362
14885SOL     OW49501   3.854   7.380   3.713
14885SOL    HW149502   3.813   7.306   3.766
14885SOL    HW249503   3.918   7.431   3.771
14886SOL     OW49504   5.004   6.513   2.534
14886SOL    HW149505   5.064   6.432   2.536
14886SOL    HW249506   5.044   6.582   2.474
14887SOL     OW49507   4.554   6.859   3.284
14887SOL    HW149508   4.549   6.892   3.379
14887SOL    HW249509   4.468   6.878   3.238
14888SOL     OW49510   4.396   7.202   2.016
14888SOL    HW149511   4.405   7.212   1.917
14888SOL    HW249512   4.356   7.113   2.037
14889SOL     OW49513   5.374   7.306   3.256
14889SOL    HW149514   5.427   7.316   3.172
14889SOL    HW249515   5.347   7.396   3.290
14890SOL     OW49516   5.565   5.761   2.825
14890SOL    HW149517   5.604   5.676   2.789
14890SOL    HW249518   5.467   5.763   2.806
14891SOL     OW49519   3.987   5.912   2.582
14891SOL    HW149520   3.908   5.963   2.548
14891SOL    HW249521   3.978   5.897   2.680
14892SOL     OW49522   4.918   7.198   1.893
14892SOL    HW149523   4.924   7.105   1.930
14892SOL    HW249524   4.859   7.198   1.813
14893SOL     OW49525   4.546   6.588   3.234
14893SOL    HW149526   4.586   6.587   3.142
14893SOL    HW249527   4.556   6.680   3.274
14894SOL     OW49528   4.640   6.496   2.153
14894SOL    HW149529   4.703   6.534   2.085
14894SOL    HW249530   4.680   6.413   2.192
14895SOL     OW49531   5.228   7.193   1.906
14895SOL    HW149532   5.136   7.230   1.913
14895SOL    HW249533   5.266   7.213   1.816
14896SOL     OW49534   5.338   6.878   3.151
14896SOL    HW149535   5.398   6.881   3.231
14896SOL    HW249536   5.263   6.942   3.164
14897SOL     OW49537   4.763   6.684   2.558
14897SOL    HW149538   4.693   6.637   2.612
14897SOL    HW249539   4.822   6.616   2.515
14898SOL     OW49540   4.738   5.822   2.833
14898SOL    HW149541   4.730   5.786   2.740
14898SOL    HW249542   4.736   5.746   2.898
14899SOL     OW49543   4.314   7.073   2.353
14899SOL    HW149544   4.356   7.015   2.283
14899SOL    HW249545   4.270   7.152   2.309
14900SOL     OW49546   5.433   5.971   3.243
14900SOL    HW149547   5.506   6.040   3.247
14900SOL    HW249548   5.461   5.896   3.184
14901SOL     OW49549   3.979   6.934   2.152
14901SOL    HW149550   3.883   6.935   2.125
14901SOL    HW249551   3.991   6.987   2.236
14902SOL     OW49552   3.829   6.599   3.588
14902SOL    HW149553   3.752   6.566   3.642
14902SOL    HW249554   3.914   6.569   3.630
14903SOL     OW49555   4.396   5.789   3.351
14903SOL    HW149556   4.486   5.773   3.311
14903SOL    HW249557   4.404   5.794   3.450
14904SOL     OW49558   3.799   5.931   1.895
14904SOL    HW149559   3.707   5.903   1.866
14904SOL    HW249560   3.830   6.008   1.839
14905SOL     OW49561   5.164   6.442   3.260
14905SOL    HW149562   5.107   6.494   3.197
14905SOL    HW249563   5.260   6.454   3.236
14906SOL     OW49564   3.796   5.752   2.180
14906SOL    HW149565   3.779   5.835   2.126
14906SOL    HW249566   3.886   5.715   2.158
14907SOL     OW49567   4.907   6.921   1.981
14907SOL    HW149568   4.808   6.910   1.983
14907SOL    HW249569   4.941   6.936   2.074
14908SOL     OW49570   4.337   6.428   3.293
14908SOL    HW149571   4.393   6.509   3.276
14908SOL    HW249572   4.396   6.348   3.296
14909SOL     OW49573   5.217   7.353   2.821
14909SOL    HW149574   5.250   7.417   2.752
14909SOL    HW249575   5.283   7.347   2.896
14910SOL     OW49576   4.440   6.151   3.570
14910SOL    HW149577   4.459   6.216   3.644
14910SOL    HW249578   4.500   6.071   3.579
14911SOL     OW49579   5.174   6.806   3.495
14911SOL    HW149580   5.165   6.796   3.594
14911SOL    HW249581   5.270   6.799   3.469
14912SOL     OW49582   4.114   7.327   3.422
14912SOL    HW149583   4.023   7.368   3.420
14912SOL    HW249584   4.107   7.233   3.454
14913SOL     OW49585   5.398   6.469   3.116
14913SOL    HW149586   5.371   6.380   3.079
14913SOL    HW249587   5.399   6.537   3.043
14914SOL     OW49588   4.949   5.911   2.311
14914SOL    HW149589   5.014   5.837   2.300
14914SOL    HW249590   4.969   5.961   2.395
14915SOL     OW49591   4.318   6.331   2.514
14915SOL    HW149592   4.368   6.416   2.495
14915SOL    HW249593   4.230   6.333   2.466
14916SOL     OW49594   5.501   5.928   3.504
14916SOL    HW149595   5.484   5.959   3.410
14916SOL    HW249596   5.417   5.891   3.542
14917SOL     OW49597   4.583   6.960   1.878
14917SOL    HW149598   4.537   6.975   1.966
14917SOL    HW249599   4.627   7.045   1.848
14918SOL     OW49600   4.385   7.376   2.815
14918SOL    HW149601   4.339   7.464   2.802
14918SOL    HW249602   4.484   7.388   2.808
14919SOL     OW49603   4.583   6.542   2.723
14919SOL    HW149604   4.637   6.473   2.771
14919SOL    HW249605   4.551   6.611   2.789
14920SOL     OW49606   4.807   6.570   1.949
14920SOL    HW149607   4.784   6.623   1.867
14920SOL    HW249608   4.888   6.514   1.930
14921SOL     OW49609   5.585   7.155   2.713
14921SOL    HW149610   5.514   7.143   2.643
14921SOL    HW249611   5.586   7.076   2.773
14922SOL     OW49612   3.945   6.900   3.706
14922SOL    HW149613   3.880   6.827   3.685
14922SOL    HW249614   3.949   6.914   3.804
14923SOL     OW49615   3.803   6.826   2.515
14923SOL    HW149616   3.802   6.779   2.603
14923SOL    HW249617   3.885   6.798   2.464
14924SOL     OW49618   4.396   6.977   3.486
14924SOL    HW149619   4.318   6.927   3.524
14924SOL    HW249620   4.393   7.072   3.517
14925SOL     OW49621   5.548   5.778   3.089
14925SOL    HW149622   5.544   5.688   3.133
14925SOL    HW249623   5.551   5.767   2.990
14926SOL     OW49624   4.152   6.010   2.382
14926SOL    HW149625   4.182   5.938   2.320
14926SOL    HW249626   4.113   5.970   2.465
14927SOL     OW49627   5.429   7.073   2.966
14927SOL    HW149628   5.336   7.048   2.939
14927SOL    HW249629   5.455   7.023   3.048
14928SOL     OW49630   4.041   6.133   3.142
14928SOL    HW149631   4.079   6.074   3.214
14928SOL    HW249632   4.081   6.107   3.054
14929SOL     OW49633   4.536   7.172   2.549
14929SOL    HW149634   4.568   7.182   2.455
14929SOL    HW249635   4.457   7.110   2.551
14930SOL     OW49636   5.148   5.800   2.974
14930SOL    HW149637   5.200   5.735   3.029
14930SOL    HW249638   5.099   5.863   3.035
14931SOL     OW49639   4.725   5.620   3.016
14931SOL    HW149640   4.662   5.548   2.985
14931SOL    HW249641   4.818   5.584   3.016
14932SOL     OW49642   4.494   6.916   2.163
14932SOL    HW149643   4.448   6.829   2.180
14932SOL    HW249644   4.585   6.913   2.204
14933SOL     OW49645   4.342   7.153   3.146
14933SOL    HW149646   4.337   7.235   3.203
14933SOL    HW249647   4.431   7.150   3.101
14934SOL     OW49648   5.076   5.638   2.030
14934SOL    HW149649   5.111   5.597   1.946
14934SOL    HW249650   4.986   5.600   2.050
14935SOL     OW49651   5.024   6.039   2.553
14935SOL    HW149652   4.965   6.119   2.557
14935SOL    HW249653   5.039   6.004   2.646
14936SOL     OW49654   5.317   5.807   2.744
14936SOL    HW149655   5.233   5.806   2.798
14936SOL    HW249656   5.319   5.890   2.688
14937SOL     OW49657   3.763   6.663   2.162
14937SOL    HW149658   3.862   6.652   2.153
14937SOL    HW249659   3.723   6.577   2.194
14938SOL     OW49660   4.599   7.232   2.199
14938SOL    HW149661   4.522   7.197   2.145
14938SOL    HW249662   4.567   7.303   2.261
14939SOL     OW49663   3.954   6.214   3.837
14939SOL    HW149664   3.861   6.212   3.874
14939SOL    HW249665   3.955   6.175   3.745
14940SOL     OW49666   3.949   5.861   4.720
14940SOL    HW149667   3.984   5.844   4.812
14940SOL    HW249668   3.861   5.816   4.708
14941SOL     OW49669   3.743   5.954   4.371
14941SOL    HW149670   3.661   5.997   4.410
14941SOL    HW249671   3.715   5.881   4.308
14942SOL     OW49672   4.293   6.861   4.889
14942SOL    HW149673   4.200   6.854   4.852
14942SOL    HW249674   4.304   6.950   4.933
14943SOL     OW49675   5.279   7.097   4.427
14943SOL    HW149676   5.222   7.081   4.508
14943SOL    HW249677   5.220   7.107   4.347
14944SOL     OW49678   4.859   6.289   4.441
14944SOL    HW149679   4.916   6.367   4.416
14944SOL    HW249680   4.799   6.315   4.517
14945SOL     OW49681   5.479   6.193   3.955
14945SOL    HW149682   5.467   6.180   3.856
14945SOL    HW249683   5.449   6.112   4.004
14946SOL     OW49684   4.492   6.730   4.747
14946SOL    HW149685   4.414   6.747   4.807
14946SOL    HW249686   4.526   6.817   4.711
14947SOL     OW49687   4.574   6.384   5.547
14947SOL    HW149688   4.570   6.460   5.612
14947SOL    HW249689   4.596   6.420   5.456
14948SOL     OW49690   4.409   6.598   4.389
14948SOL    HW149691   4.478   6.582   4.459
14948SOL    HW249692   4.336   6.655   4.427
14949SOL     OW49693   4.410   6.747   5.527
14949SOL    HW149694   4.470   6.826   5.541
14949SOL    HW249695   4.324   6.778   5.486
14950SOL     OW49696   4.059   7.021   4.785
14950SOL    HW149697   3.981   6.990   4.732
14950SOL    HW249698   4.117   7.079   4.728
14951SOL     OW49699   5.184   7.091   5.063
14951SOL    HW149700   5.208   7.185   5.089
14951SOL    HW249701   5.168   7.037   5.145
14952SOL     OW49702   4.162   5.978   5.223
14952SOL    HW149703   4.244   5.922   5.232
14952SOL    HW249704   4.081   5.920   5.227
14953SOL     OW49705   5.327   6.033   4.461
14953SOL    HW149706   5.253   6.079   4.411
14953SOL    HW249707   5.378   6.101   4.514
14954SOL     OW49708   3.955   7.299   4.207
14954SOL    HW149709   3.989   7.376   4.261
14954SOL    HW249710   3.999   7.299   4.117
14955SOL     OW49711   3.954   7.020   4.262
14955SOL    HW149712   3.928   7.116   4.262
14955SOL    HW249713   3.883   6.966   4.307
14956SOL     OW49714   3.964   6.677   4.610
14956SOL    HW149715   3.978   6.593   4.662
14956SOL    HW249716   3.909   6.741   4.665
14957SOL     OW49717   4.344   7.372   5.163
14957SOL    HW149718   4.252   7.355   5.198
14957SOL    HW249719   4.372   7.464   5.189
14958SOL     OW49720   4.330   6.550   3.847
14958SOL    HW149721   4.337   6.634   3.793
14958SOL    HW249722   4.376   6.563   3.935
14959SOL     OW49723   3.846   6.229   4.287
14959SOL    HW149724   3.801   6.141   4.304
14959SOL    HW249725   3.845   6.283   4.371
14960SOL     OW49726   5.566   7.353   4.083
14960SOL    HW149727   5.620   7.324   4.163
14960SOL    HW249728   5.596   7.443   4.054
14961SOL     OW49729   3.751   7.182   3.841
14961SOL    HW149730   3.732   7.086   3.862
14961SOL    HW249731   3.718   7.240   3.916
14962SOL     OW49732   5.413   6.508   4.336
14962SOL    HW149733   5.508   6.479   4.344
14962SOL    HW249734   5.405   6.573   4.261
14963SOL     OW49735   5.365   6.694   4.156
14963SOL    HW149736   5.451   6.696   4.104
14963SOL    HW249737   5.379   6.741   4.244
14964SOL     OW49738   3.837   6.323   5.321
14964SOL    HW149739   3.925   6.310   5.366
14964SOL    HW249740   3.824   6.420   5.299
14965SOL     OW49741   4.337   6.951   4.450
14965SOL    HW149742   4.288   6.864   4.459
14965SOL    HW249743   4.314   6.994   4.363
14966SOL     OW49744   5.017   6.814   5.147
14966SOL    HW149745   5.054   6.741   5.089
14966SOL    HW249746   5.069   6.819   5.232
14967SOL     OW49747   4.533   5.590   4.226
14967SOL    HW149748   4.573   5.681   4.217
14967SOL    HW249749   4.433   5.598   4.232
14968SOL     OW49750   3.921   6.562   4.988
14968SOL    HW149751   4.010   6.517   4.974
14968SOL    HW249752   3.848   6.497   4.969
14969SOL     OW49753   5.249   6.585   3.914
14969SOL    HW149754   5.186   6.509   3.927
14969SOL    HW249755   5.297   6.603   4.000
14970SOL     OW49756   4.911   7.378   5.340
14970SOL    HW149757   4.935   7.438   5.264
14970SOL    HW249758   4.918   7.283   5.310
14971SOL     OW49759   4.041   5.837   5.525
14971SOL    HW149760   4.112   5.908   5.531
14971SOL    HW249761   3.953   5.876   5.553
14972SOL     OW49762   5.190   7.003   4.677
14972SOL    HW149763   5.131   7.009   4.757
14972SOL    HW249764   5.175   6.915   4.631
14973SOL     OW49765   5.391   7.300   4.296
14973SOL    HW149766   5.350   7.277   4.208
14973SOL    HW249767   5.373   7.226   4.361
14974SOL     OW49768   4.322   6.315   3.994
14974SOL    HW149769   4.346   6.384   3.926
14974SOL    HW249770   4.244   6.348   4.048
14975SOL     OW49771   5.005   5.931   4.668
14975SOL    HW149772   4.919   5.881   4.655
14975SOL    HW249773   5.067   5.877   4.724
14976SOL     OW49774   5.300   7.248   4.031
14976SOL    HW149775   5.389   7.294   4.034
14976SOL    HW249776   5.279   7.224   3.936
14977SOL     OW49777   4.531   6.191   5.189
14977SOL    HW149778   4.484   6.188   5.278
14977SOL    HW249779   4.480   6.136   5.123
14978SOL     OW49780   5.118   6.055   5.398
14978SOL    HW149781   5.098   6.098   5.486
14978SOL    HW249782   5.196   5.993   5.407
14979SOL     OW49783   4.697   6.476   5.296
14979SOL    HW149784   4.743   6.392   5.267
14979SOL    HW249785   4.641   6.510   5.221
14980SOL     OW49786   4.715   5.996   4.966
14980SOL    HW149787   4.638   6.030   5.020
14980SOL    HW249788   4.681   5.945   4.887
14981SOL     OW49789   4.765   6.287   4.153
14981SOL    HW149790   4.791   6.283   4.249
14981SOL    HW249791   4.680   6.236   4.139
14982SOL     OW49792   3.854   7.407   5.295
14982SOL    HW149793   3.844   7.392   5.394
14982SOL    HW249794   3.768   7.443   5.259
14983SOL     OW49795   4.589   5.934   3.919
14983SOL    HW149796   4.648   5.997   3.870
14983SOL    HW249797   4.608   5.840   3.890
14984SOL     OW49798   5.443   6.171   5.555
14984SOL    HW149799   5.417   6.260   5.519
14984SOL    HW249800   5.441   6.103   5.482
14985SOL     OW49801   5.086   6.730   4.269
14985SOL    HW149802   5.169   6.701   4.221
14985SOL    HW249803   5.037   6.797   4.213
14986SOL     OW49804   4.274   5.782   4.609
14986SOL    HW149805   4.269   5.777   4.709
14986SOL    HW249806   4.276   5.878   4.580
14987SOL     OW49807   4.732   7.042   4.201
14987SOL    HW149808   4.686   7.114   4.149
14987SOL    HW249809   4.728   7.062   4.299
14988SOL     OW49810   4.075   7.387   4.577
14988SOL    HW149811   4.125   7.301   4.583
14988SOL    HW249812   4.140   7.464   4.574
14989SOL     OW49813   5.519   6.652   4.597
14989SOL    HW149814   5.457   6.637   4.521
14989SOL    HW249815   5.467   6.663   4.682
14990SOL     OW49816   4.951   7.136   5.230
14990SOL    HW149817   4.957   7.059   5.294
14990SOL    HW249818   4.899   7.110   5.150
14991SOL     OW49819   4.045   6.529   3.966
14991SOL    HW149820   4.127   6.568   3.924
14991SOL    HW249821   4.018   6.447   3.917
14992SOL     OW49822   5.182   6.321   4.452
14992SOL    HW149823   5.177   6.256   4.527
14992SOL    HW249824   5.262   6.380   4.465
14993SOL     OW49825   4.185   6.852   5.451
14993SOL    HW149826   4.135   6.853   5.365
14993SOL    HW249827   4.122   6.834   5.527
14994SOL     OW49828   4.835   7.362   3.961
14994SOL    HW149829   4.775   7.300   4.011
14994SOL    HW249830   4.866   7.318   3.876
14995SOL     OW49831   3.926   5.871   5.222
14995SOL    HW149832   3.846   5.931   5.209
14995SOL    HW249833   3.916   5.822   5.308
14996SOL     OW49834   5.356   6.963   3.805
14996SOL    HW149835   5.324   7.057   3.795
14996SOL    HW249836   5.280   6.900   3.793
14997SOL     OW49837   4.188   7.329   4.047
14997SOL    HW149838   4.221   7.368   4.133
14997SOL    HW249839   4.264   7.322   3.982
14998SOL     OW49840   5.124   5.693   4.150
14998SOL    HW149841   5.100   5.656   4.060
14998SOL    HW249842   5.223   5.709   4.154
14999SOL     OW49843   3.973   7.371   4.965
14999SOL    HW149844   4.030   7.306   5.015
14999SOL    HW249845   3.957   7.338   4.872
15000SOL     OW49846   4.664   7.284   4.628
15000SOL    HW149847   4.744   7.227   4.649
15000SOL    HW249848   4.615   7.244   4.551
15001SOL     OW49849   4.106   6.286   4.204
15001SOL    HW149850   4.151   6.196   4.201
15001SOL    HW249851   4.012   6.275   4.237
15002SOL     OW49852   5.271   5.808   5.453
15002SOL    HW149853   5.266   5.845   5.545
15002SOL    HW249854   5.199   5.739   5.441
15003SOL     OW49855   4.338   5.708   3.841
15003SOL    HW149856   4.436   5.686   3.848
15003SOL    HW249857   4.307   5.691   3.748
15004SOL     OW49858   4.505   5.850   5.473
15004SOL    HW149859   4.572   5.789   5.516
15004SOL    HW249860   4.432   5.869   5.538
15005SOL     OW49861   4.612   7.100   4.919
15005SOL    HW149862   4.589   7.075   4.825
15005SOL    HW249863   4.673   7.031   4.958
15006SOL     OW49864   5.075   6.176   5.157
15006SOL    HW149865   5.103   6.133   5.242
15006SOL    HW249866   5.100   6.272   5.158
15007SOL     OW49867   4.527   6.988   4.648
15007SOL    HW149868   4.617   7.002   4.606
15007SOL    HW249869   4.456   6.990   4.577
15008SOL     OW49870   4.646   6.089   4.623
15008SOL    HW149871   4.621   6.080   4.527
15008SOL    HW249872   4.694   6.007   4.654
15009SOL     OW49873   4.263   5.650   4.236
15009SOL    HW149874   4.182   5.651   4.294
15009SOL    HW249875   4.266   5.733   4.181
15010SOL     OW49876   5.158   6.774   3.765
15010SOL    HW149877   5.190   6.698   3.822
15010SOL    HW249878   5.066   6.801   3.795
15011SOL     OW49879   4.021   5.621   3.895
15011SOL    HW149880   4.070   5.705   3.874
15011SOL    HW249881   4.083   5.556   3.940
15012SOL     OW49882   4.659   5.822   4.204
15012SOL    HW149883   4.611   5.863   4.126
15012SOL    HW249884   4.758   5.820   4.185
15013SOL     OW49885   4.800   6.269   5.188
15013SOL    HW149886   4.720   6.208   5.191
15013SOL    HW249887   4.881   6.216   5.164
15014SOL     OW49888   4.951   7.156   4.517
15014SOL    HW149889   4.972   7.230   4.452
15014SOL    HW249890   5.019   7.156   4.590
15015SOL     OW49891   4.183   6.738   4.465
15015SOL    HW149892   4.112   6.711   4.530
15015SOL    HW249893   4.157   6.710   4.372
15016SOL     OW49894   4.995   7.383   4.315
15016SOL    HW149895   5.039   7.447   4.251
15016SOL    HW249896   4.945   7.435   4.385
15017SOL     OW49897   4.756   6.135   3.740
15017SOL    HW149898   4.715   6.217   3.701
15017SOL    HW249899   4.820   6.161   3.813
15018SOL     OW49900   3.802   6.142   5.110
15018SOL    HW149901   3.894   6.141   5.069
15018SOL    HW249902   3.796   6.216   5.177
15019SOL     OW49903   4.285   5.808   4.871
15019SOL    HW149904   4.323   5.724   4.908
15019SOL    HW249905   4.197   5.827   4.915
15020SOL     OW49906   4.590   6.040   4.366
15020SOL    HW149907   4.558   6.112   4.304
15020SOL    HW249908   4.614   5.959   4.313
15021SOL     OW49909   4.741   5.625   4.477
15021SOL    HW149910   4.669   5.630   4.408
15021SOL    HW249911   4.717   5.556   4.546
15022SOL     OW49912   5.153   6.759   4.591
15022SOL    HW149913   5.098   6.675   4.584
15022SOL    HW249914   5.179   6.788   4.499
15023SOL     OW49915   5.190   6.176   4.716
15023SOL    HW149916   5.160   6.081   4.723
15023SOL    HW249917   5.263   6.192   4.782
15024SOL     OW49918   5.581   6.419   4.101
15024SOL    HW149919   5.623   6.355   4.165
15024SOL    HW249920   5.543   6.368   4.023
15025SOL     OW49921   4.212   6.971   3.898
15025SOL    HW149922   4.125   6.956   3.945
15025SOL    HW249923   4.195   6.997   3.803
15026SOL     OW49924   5.388   6.866   4.381
15026SOL    HW149925   5.487   6.874   4.395
15026SOL    HW249926   5.343   6.950   4.412
15027SOL     OW49927   5.114   6.161   3.802
15027SOL    HW149928   5.060   6.140   3.883
15027SOL    HW249929   5.205   6.120   3.811
15028SOL     OW49930   4.251   5.842   4.052
15028SOL    HW149931   4.278   5.783   3.977
15028SOL    HW249932   4.251   5.937   4.021
15029SOL     OW49933   5.478   6.809   5.312
15029SOL    HW149934   5.569   6.770   5.299
15029SOL    HW249935   5.486   6.905   5.336
15030SOL     OW49936   4.788   6.933   5.064
15030SOL    HW149937   4.708   6.910   5.119
15030SOL    HW249938   4.871   6.907   5.113
15031SOL     OW49939   5.316   7.215   5.349
15031SOL    HW149940   5.343   7.249   5.259
15031SOL    HW249941   5.395   7.177   5.395
15032SOL     OW49942   4.835   6.781   4.824
15032SOL    HW149943   4.795   6.825   4.905
15032SOL    HW249944   4.794   6.818   4.741
15033SOL     OW49945   5.362   6.685   4.803
15033SOL    HW149946   5.367   6.766   4.862
15033SOL    HW249947   5.276   6.687   4.752
15034SOL     OW49948   4.639   5.675   5.126
15034SOL    HW149949   4.664   5.655   5.031
15034SOL    HW249950   4.711   5.731   5.168
15035SOL     OW49951   4.704   6.702   5.443
15035SOL    HW149952   4.605   6.708   5.453
15035SOL    HW249953   4.727   6.622   5.387
15036SOL     OW49954   4.429   6.636   4.092
15036SOL    HW149955   4.415   6.643   4.191
15036SOL    HW249956   4.513   6.585   4.074
15037SOL     OW49957   4.134   6.399   4.975
15037SOL    HW149958   4.220   6.411   5.025
15037SOL    HW249959   4.092   6.312   5.002
15038SOL     OW49960   4.998   5.972   4.986
15038SOL    HW149961   5.019   6.046   5.050
15038SOL    HW249962   4.909   5.989   4.943
15039SOL     OW49963   3.788   7.150   5.055
15039SOL    HW149964   3.742   7.232   5.021
15039SOL    HW249965   3.886   7.169   5.064
15040SOL     OW49966   4.091   6.686   4.225
15040SOL    HW149967   4.084   6.769   4.169
15040SOL    HW249968   4.095   6.606   4.165
15041SOL     OW49969   4.290   6.123   4.589
15041SOL    HW149970   4.302   6.189   4.515
15041SOL    HW249971   4.336   6.157   4.672
15042SOL     OW49972   4.976   6.934   4.112
15042SOL    HW149973   5.026   7.011   4.152
15042SOL    HW249974   4.881   6.936   4.144
15043SOL     OW49975   4.996   7.031   4.866
15043SOL    HW149976   5.043   7.044   4.953
15043SOL    HW249977   4.930   6.957   4.875
15044SOL     OW49978   5.306   6.225   4.196
15044SOL    HW149979   5.275   6.286   4.269
15044SOL    HW249980   5.356   6.277   4.127
15045SOL     OW49981   4.078   7.096   5.053
15045SOL    HW149982   4.057   7.052   4.966
15045SOL    HW249983   4.175   7.122   5.056
15046SOL     OW49984   4.126   6.337   5.322
15046SOL    HW149985   4.194   6.392   5.275
15046SOL    HW249986   4.166   6.249   5.349
15047SOL     OW49987   5.311   6.365   5.394
15047SOL    HW149988   5.219   6.403   5.389
15047SOL    HW249989   5.371   6.412   5.329
15048SOL     OW49990   4.737   5.691   5.494
15048SOL    HW149991   4.743   5.776   5.442
15048SOL    HW249992   4.769   5.615   5.437
15049SOL     OW49993   4.228   5.636   5.464
15049SOL    HW149994   4.186   5.579   5.394
15049SOL    HW249995   4.162   5.705   5.496
15050SOL     OW49996   4.297   6.456   4.753
15050SOL    HW149997   4.341   6.545   4.744
15050SOL    HW249998   4.234   6.456   4.830
15051SOL     OW49999   5.084   6.448   4.769
15051SOL    HW150000   5.009   6.448   4.703
15051SOL    HW250001   5.121   6.356   4.778
15052SOL     OW50002   4.933   6.111   3.999
15052SOL    HW150003   4.946   6.027   4.053
15052SOL    HW250004   4.904   6.185   4.059
15053SOL     OW50005   4.031   5.799   4.955
15053SOL    HW150006   4.008   5.836   5.045
15053SOL    HW250007   4.001   5.704   4.949
15054SOL     OW50008   3.761   6.896   5.006
15054SOL    HW150009   3.814   6.847   5.074
15054SOL    HW250010   3.783   6.994   5.011
15055SOL     OW50011   4.456   6.220   4.788
15055SOL    HW150012   4.515   6.194   4.712
15055SOL    HW250013   4.428   6.316   4.777
15056SOL     OW50014   5.452   6.521   5.578
15056SOL    HW150015   5.406   6.514   5.489
15056SOL    HW250016   5.390   6.565   5.644
15057SOL     OW50017   4.031   5.649   4.342
15057SOL    HW150018   4.020   5.743   4.375
15057SOL    HW250019   4.026   5.586   4.419
15058SOL     OW50020   5.346   5.953   4.098
15058SOL    HW150021   5.348   5.877   4.162
15058SOL    HW250022   5.298   6.030   4.138
15059SOL     OW50023   4.704   7.159   5.424
15059SOL    HW150024   4.684   7.203   5.336
15059SOL    HW250025   4.743   7.068   5.408
15060SOL     OW50026   5.583   7.104   5.329
15060SOL    HW150027   5.597   7.131   5.234
15060SOL    HW250028   5.666   7.126   5.382
15061SOL     OW50029   4.074   6.484   5.528
15061SOL    HW150030   4.150   6.528   5.576
15061SOL    HW250031   4.109   6.437   5.446
15062SOL     OW50032   5.264   5.860   3.849
15062SOL    HW150033   5.203   5.785   3.872
15062SOL    HW250034   5.286   5.912   3.932
15063SOL     OW50035   5.027   6.424   3.766
15063SOL    HW150036   5.061   6.331   3.781
15063SOL    HW250037   5.045   6.451   3.671
15064SOL     OW50038   4.792   6.919   4.573
15064SOL    HW150039   4.799   6.835   4.518
15064SOL    HW250040   4.854   6.988   4.537
15065SOL     OW50041   4.043   6.396   4.673
15065SOL    HW150042   4.136   6.432   4.678
15065SOL    HW250043   4.037   6.311   4.725
15066SOL     OW50044   4.063   6.095   4.730
15066SOL    HW150045   4.011   6.012   4.713
15066SOL    HW250046   4.140   6.100   4.666
15067SOL     OW50047   4.862   5.966   5.402
15067SOL    HW150048   4.817   6.029   5.466
15067SOL    HW250049   4.955   5.997   5.385
15068SOL     OW50050   4.884   5.793   5.201
15068SOL    HW150051   4.884   5.857   5.278
15068SOL    HW250052   4.912   5.841   5.118
15069SOL     OW50053   3.732   6.912   3.924
15069SOL    HW150054   3.639   6.933   3.893
15069SOL    HW250055   3.742   6.813   3.937
15070SOL     OW50056   3.812   7.387   4.651
15070SOL    HW150057   3.770   7.301   4.624
15070SOL    HW250058   3.906   7.390   4.617
15071SOL     OW50059   4.228   7.154   4.634
15071SOL    HW150060   4.294   7.228   4.643
15071SOL    HW250061   4.272   7.075   4.592
15072SOL     OW50062   4.726   6.382   4.962
15072SOL    HW150063   4.767   6.350   5.048
15072SOL    HW250064   4.630   6.355   4.959
15073SOL     OW50065   3.764   6.130   4.838
15073SOL    HW150066   3.849   6.097   4.797
15073SOL    HW250067   3.777   6.145   4.936
15074SOL     OW50068   3.913   6.106   5.446
15074SOL    HW150069   3.972   6.066   5.376
15074SOL    HW250070   3.855   6.177   5.405
15075SOL     OW50071   5.093   6.536   5.384
15075SOL    HW150072   5.132   6.625   5.404
15075SOL    HW250073   5.103   6.516   5.287
15076SOL     OW50074   4.539   6.158   4.049
15076SOL    HW150075   4.546   6.069   4.003
15076SOL    HW250076   4.445   6.192   4.041
15077SOL     OW50077   5.381   6.190   4.930
15077SOL    HW150078   5.343   6.121   4.992
15077SOL    HW250079   5.463   6.154   4.886
15078SOL     OW50080   3.976   7.150   5.468
15078SOL    HW150081   3.946   7.207   5.544
15078SOL    HW250082   3.969   7.053   5.494
15079SOL     OW50083   4.395   6.050   4.993
15079SOL    HW150084   4.361   5.961   4.963
15079SOL    HW250085   4.421   6.104   4.913
15080SOL     OW50086   4.654   7.264   5.189
15080SOL    HW150087   4.630   7.246   5.094
15080SOL    HW250088   4.684   7.358   5.199
15081SOL     OW50089   4.197   6.086   3.915
15081SOL    HW150090   4.258   6.166   3.919
15081SOL    HW250091   4.102   6.117   3.922
15082SOL     OW50092   3.883   6.723   5.190
15082SOL    HW150093   3.905   6.662   5.266
15082SOL    HW250094   3.893   6.674   5.104
15083SOL     OW50095   5.071   6.645   4.958
15083SOL    HW150096   5.095   6.582   4.884
15083SOL    HW250097   4.981   6.685   4.940
15084SOL     OW50098   5.026   6.441   4.033
15084SOL    HW150099   4.940   6.410   4.075
15084SOL    HW250100   5.022   6.427   3.934
15085SOL     OW50101   5.483   7.333   4.878
15085SOL    HW150102   5.544   7.363   4.805
15085SOL    HW250103   5.445   7.244   4.856
15086SOL     OW50104   4.976   7.317   4.852
15086SOL    HW150105   5.060   7.322   4.798
15086SOL    HW250106   4.953   7.221   4.870
15087SOL     OW50107   3.807   6.844   4.746
15087SOL    HW150108   3.802   6.843   4.846
15087SOL    HW250109   3.724   6.803   4.708
15088SOL     OW50110   4.412   7.248   5.440
15088SOL    HW150111   4.356   7.329   5.449
15088SOL    HW250112   4.464   7.252   5.354
15089SOL     OW50113   5.450   5.721   4.247
15089SOL    HW150114   5.523   5.704   4.180
15089SOL    HW250115   5.419   5.634   4.285
15090SOL     OW50116   5.112   7.159   4.201
15090SOL    HW150117   5.179   7.171   4.127
15090SOL    HW250118   5.072   7.248   4.224
15091SOL     OW50119   3.854   7.380   5.575
15091SOL    HW150120   3.813   7.306   5.628
15091SOL    HW250121   3.918   7.431   5.633
15092SOL     OW50122   5.004   6.513   4.396
15092SOL    HW150123   5.064   6.432   4.398
15092SOL    HW250124   5.044   6.582   4.336
15093SOL     OW50125   4.554   6.859   5.146
15093SOL    HW150126   4.549   6.892   5.241
15093SOL    HW250127   4.468   6.878   5.100
15094SOL     OW50128   4.396   7.202   3.878
15094SOL    HW150129   4.405   7.212   3.779
15094SOL    HW250130   4.356   7.113   3.899
15095SOL     OW50131   5.374   7.306   5.118
15095SOL    HW150132   5.427   7.316   5.034
15095SOL    HW250133   5.347   7.396   5.152
15096SOL     OW50134   5.565   5.761   4.687
15096SOL    HW150135   5.604   5.676   4.651
15096SOL    HW250136   5.467   5.763   4.668
15097SOL     OW50137   3.987   5.912   4.444
15097SOL    HW150138   3.908   5.963   4.410
15097SOL    HW250139   3.978   5.897   4.542
15098SOL     OW50140   4.918   7.198   3.755
15098SOL    HW150141   4.924   7.105   3.792
15098SOL    HW250142   4.859   7.198   3.675
15099SOL     OW50143   4.546   6.588   5.096
15099SOL    HW150144   4.586   6.587   5.004
15099SOL    HW250145   4.556   6.680   5.136
15100SOL     OW50146   4.640   6.496   4.015
15100SOL    HW150147   4.703   6.534   3.947
15100SOL    HW250148   4.680   6.413   4.054
15101SOL     OW50149   5.228   7.193   3.768
15101SOL    HW150150   5.136   7.230   3.775
15101SOL    HW250151   5.266   7.213   3.678
15102SOL     OW50152   4.096   6.874   5.214
15102SOL    HW150153   4.083   6.967   5.180
15102SOL    HW250154   4.012   6.822   5.201
15103SOL     OW50155   5.338   6.878   5.013
15103SOL    HW150156   5.398   6.881   5.093
15103SOL    HW250157   5.263   6.942   5.026
15104SOL     OW50158   4.763   6.684   4.420
15104SOL    HW150159   4.693   6.637   4.474
15104SOL    HW250160   4.822   6.616   4.377
15105SOL     OW50161   4.738   5.822   4.695
15105SOL    HW150162   4.730   5.786   4.602
15105SOL    HW250163   4.736   5.746   4.760
15106SOL     OW50164   4.314   7.073   4.215
15106SOL    HW150165   4.356   7.015   4.145
15106SOL    HW250166   4.270   7.152   4.171
15107SOL     OW50167   5.433   5.971   5.105
15107SOL    HW150168   5.506   6.040   5.109
15107SOL    HW250169   5.461   5.896   5.046
15108SOL     OW50170   3.979   6.934   4.014
15108SOL    HW150171   3.883   6.935   3.987
15108SOL    HW250172   3.991   6.987   4.098
15109SOL     OW50173   3.829   6.599   5.450
15109SOL    HW150174   3.752   6.566   5.504
15109SOL    HW250175   3.914   6.569   5.492
15110SOL     OW50176   4.396   5.789   5.213
15110SOL    HW150177   4.486   5.773   5.173
15110SOL    HW250178   4.404   5.794   5.312
15111SOL     OW50179   3.799   5.931   3.757
15111SOL    HW150180   3.707   5.903   3.728
15111SOL    HW250181   3.830   6.008   3.701
15112SOL     OW50182   5.164   6.442   5.122
15112SOL    HW150183   5.107   6.494   5.059
15112SOL    HW250184   5.260   6.454   5.098
15113SOL     OW50185   3.796   5.752   4.042
15113SOL    HW150186   3.779   5.835   3.988
15113SOL    HW250187   3.886   5.715   4.020
15114SOL     OW50188   4.907   6.921   3.843
15114SOL    HW150189   4.808   6.910   3.845
15114SOL    HW250190   4.941   6.936   3.936
15115SOL     OW50191   4.337   6.428   5.155
15115SOL    HW150192   4.393   6.509   5.138
15115SOL    HW250193   4.396   6.348   5.158
15116SOL     OW50194   5.217   7.353   4.683
15116SOL    HW150195   5.250   7.417   4.614
15116SOL    HW250196   5.283   7.347   4.758
15117SOL     OW50197   4.440   6.151   5.432
15117SOL    HW150198   4.459   6.216   5.506
15117SOL    HW250199   4.500   6.071   5.441
15118SOL     OW50200   5.174   6.806   5.357
15118SOL    HW150201   5.165   6.796   5.456
15118SOL    HW250202   5.270   6.799   5.331
15119SOL     OW50203   4.114   7.327   5.284
15119SOL    HW150204   4.023   7.368   5.282
15119SOL    HW250205   4.107   7.233   5.316
15120SOL     OW50206   5.398   6.469   4.978
15120SOL    HW150207   5.371   6.380   4.941
15120SOL    HW250208   5.399   6.537   4.905
15121SOL     OW50209   4.318   6.331   4.376
15121SOL    HW150210   4.368   6.416   4.357
15121SOL    HW250211   4.230   6.333   4.328
15122SOL     OW50212   5.501   5.928   5.366
15122SOL    HW150213   5.484   5.959   5.272
15122SOL    HW250214   5.417   5.891   5.404
15123SOL     OW50215   5.454   6.520   5.241
15123SOL    HW150216   5.492   6.611   5.256
15123SOL    HW250217   5.446   6.503   5.142
15124SOL     OW50218   4.583   6.960   3.740
15124SOL    HW150219   4.537   6.975   3.828
15124SOL    HW250220   4.627   7.045   3.710
15125SOL     OW50221   4.385   7.376   4.677
15125SOL    HW150222   4.339   7.464   4.664
15125SOL    HW250223   4.484   7.388   4.670
15126SOL     OW50224   4.583   6.542   4.585
15126SOL    HW150225   4.637   6.473   4.633
15126SOL    HW250226   4.551   6.611   4.651
15127SOL     OW50227   4.807   6.570   3.811
15127SOL    HW150228   4.784   6.623   3.729
15127SOL    HW250229   4.888   6.514   3.792
15128SOL     OW50230   5.585   7.155   4.575
15128SOL    HW150231   5.514   7.143   4.505
15128SOL    HW250232   5.586   7.076   4.635
15129SOL     OW50233   3.945   6.900   5.568
15129SOL    HW150234   3.880   6.827   5.547
15129SOL    HW250235   3.949   6.914   5.666
15130SOL     OW50236   3.803   6.826   4.377
15130SOL    HW150237   3.802   6.779   4.465
15130SOL    HW250238   3.885   6.798   4.326
15131SOL     OW50239   4.396   6.977   5.348
15131SOL    HW150240   4.318   6.927   5.386
15131SOL    HW250241   4.393   7.072   5.379
15132SOL     OW50242   5.548   5.778   4.951
15132SOL    HW150243   5.544   5.688   4.995
15132SOL    HW250244   5.551   5.767   4.852
15133SOL     OW50245   4.152   6.010   4.244
15133SOL    HW150246   4.182   5.938   4.182
15133SOL    HW250247   4.113   5.970   4.327
15134SOL     OW50248   5.429   7.073   4.828
15134SOL    HW150249   5.336   7.048   4.801
15134SOL    HW250250   5.455   7.023   4.910
15135SOL     OW50251   4.041   6.133   5.004
15135SOL    HW150252   4.079   6.074   5.076
15135SOL    HW250253   4.081   6.107   4.916
15136SOL     OW50254   4.536   7.172   4.411
15136SOL    HW150255   4.568   7.182   4.317
15136SOL    HW250256   4.457   7.110   4.413
15137SOL     OW50257   5.148   5.800   4.836
15137SOL    HW150258   5.200   5.735   4.891
15137SOL    HW250259   5.099   5.863   4.897
15138SOL     OW50260   4.725   5.620   4.878
15138SOL    HW150261   4.662   5.548   4.847
15138SOL    HW250262   4.818   5.584   4.878
15139SOL     OW50263   4.494   6.916   4.025
15139SOL    HW150264   4.448   6.829   4.042
15139SOL    HW250265   4.585   6.913   4.066
15140SOL     OW50266   4.342   7.153   5.008
15140SOL    HW150267   4.337   7.235   5.065
15140SOL    HW250268   4.431   7.150   4.963
15141SOL     OW50269   5.076   5.638   3.892
15141SOL    HW150270   5.111   5.597   3.808
15141SOL    HW250271   4.986   5.600   3.912
15142SOL     OW50272   5.024   6.039   4.415
15142SOL    HW150273   4.965   6.119   4.419
15142SOL    HW250274   5.039   6.004   4.508
15143SOL     OW50275   5.317   5.807   4.606
15143SOL    HW150276   5.233   5.806   4.660
15143SOL    HW250277   5.319   5.890   4.550
15144SOL     OW50278   3.763   6.663   4.024
15144SOL    HW150279   3.862   6.652   4.015
15144SOL    HW250280   3.723   6.577   4.056
15145SOL     OW50281   4.599   7.232   4.061
15145SOL    HW150282   4.522   7.197   4.007
15145SOL    HW250283   4.567   7.303   4.123
15146SOL     OW50284   3.954   6.214   5.699
15146SOL    HW150285   3.861   6.212   5.736
15146SOL    HW250286   3.955   6.175   5.607
15147SOL     OW50287   3.949   5.861   6.582
15147SOL    HW150288   3.984   5.844   6.674
15147SOL    HW250289   3.861   5.816   6.570
15148SOL     OW50290   3.743   5.954   6.233
15148SOL    HW150291   3.661   5.997   6.272
15148SOL    HW250292   3.715   5.881   6.170
15149SOL     OW50293   4.293   6.861   6.751
15149SOL    HW150294   4.200   6.854   6.714
15149SOL    HW250295   4.304   6.950   6.795
15150SOL     OW50296   5.279   7.097   6.289
15150SOL    HW150297   5.222   7.081   6.370
15150SOL    HW250298   5.220   7.107   6.209
15151SOL     OW50299   4.859   6.289   6.303
15151SOL    HW150300   4.916   6.367   6.278
15151SOL    HW250301   4.799   6.315   6.379
15152SOL     OW50302   5.479   6.193   5.817
15152SOL    HW150303   5.467   6.180   5.718
15152SOL    HW250304   5.449   6.112   5.866
15153SOL     OW50305   4.492   6.730   6.609
15153SOL    HW150306   4.414   6.747   6.669
15153SOL    HW250307   4.526   6.817   6.573
15154SOL     OW50308   4.574   6.384   7.409
15154SOL    HW150309   4.570   6.460   7.474
15154SOL    HW250310   4.596   6.420   7.318
15155SOL     OW50311   4.409   6.598   6.251
15155SOL    HW150312   4.478   6.582   6.321
15155SOL    HW250313   4.336   6.655   6.289
15156SOL     OW50314   4.410   6.747   7.389
15156SOL    HW150315   4.470   6.826   7.403
15156SOL    HW250316   4.324   6.778   7.348
15157SOL     OW50317   4.059   7.021   6.647
15157SOL    HW150318   3.981   6.990   6.594
15157SOL    HW250319   4.117   7.079   6.590
15158SOL     OW50320   5.184   7.091   6.925
15158SOL    HW150321   5.208   7.185   6.951
15158SOL    HW250322   5.168   7.037   7.007
15159SOL     OW50323   4.162   5.978   7.085
15159SOL    HW150324   4.244   5.922   7.094
15159SOL    HW250325   4.081   5.920   7.089
15160SOL     OW50326   5.327   6.033   6.323
15160SOL    HW150327   5.253   6.079   6.273
15160SOL    HW250328   5.378   6.101   6.376
15161SOL     OW50329   3.955   7.299   6.069
15161SOL    HW150330   3.989   7.376   6.123
15161SOL    HW250331   3.999   7.299   5.979
15162SOL     OW50332   4.851   6.927   7.276
15162SOL    HW150333   4.898   6.927   7.364
15162SOL    HW250334   4.803   6.840   7.265
15163SOL     OW50335   3.954   7.020   6.124
15163SOL    HW150336   3.928   7.116   6.124
15163SOL    HW250337   3.883   6.966   6.169
15164SOL     OW50338   4.344   7.372   7.025
15164SOL    HW150339   4.252   7.355   7.060
15164SOL    HW250340   4.372   7.464   7.051
15165SOL     OW50341   4.330   6.550   5.709
15165SOL    HW150342   4.337   6.634   5.655
15165SOL    HW250343   4.376   6.563   5.797
15166SOL     OW50344   5.318   5.700   7.066
15166SOL    HW150345   5.300   5.767   6.994
15166SOL    HW250346   5.315   5.746   7.155
15167SOL     OW50347   3.846   6.229   6.149
15167SOL    HW150348   3.801   6.141   6.166
15167SOL    HW250349   3.845   6.283   6.233
15168SOL     OW50350   5.566   7.353   5.945
15168SOL    HW150351   5.620   7.324   6.025
15168SOL    HW250352   5.596   7.443   5.916
15169SOL     OW50353   3.751   7.182   5.703
15169SOL    HW150354   3.732   7.086   5.724
15169SOL    HW250355   3.718   7.240   5.778
15170SOL     OW50356   5.413   6.508   6.198
15170SOL    HW150357   5.508   6.479   6.206
15170SOL    HW250358   5.405   6.573   6.123
15171SOL     OW50359   5.365   6.694   6.018
15171SOL    HW150360   5.451   6.696   5.966
15171SOL    HW250361   5.379   6.741   6.106
15172SOL     OW50362   4.337   6.951   6.312
15172SOL    HW150363   4.288   6.864   6.321
15172SOL    HW250364   4.314   6.994   6.225
15173SOL     OW50365   5.017   6.814   7.009
15173SOL    HW150366   5.054   6.741   6.951
15173SOL    HW250367   5.069   6.819   7.094
15174SOL     OW50368   4.533   5.590   6.088
15174SOL    HW150369   4.573   5.681   6.079
15174SOL    HW250370   4.433   5.598   6.094
15175SOL     OW50371   3.921   6.562   6.850
15175SOL    HW150372   4.010   6.517   6.836
15175SOL    HW250373   3.848   6.497   6.831
15176SOL     OW50374   5.249   6.585   5.776
15176SOL    HW150375   5.186   6.509   5.789
15176SOL    HW250376   5.297   6.603   5.862
15177SOL     OW50377   4.911   7.378   7.202
15177SOL    HW150378   4.935   7.438   7.126
15177SOL    HW250379   4.918   7.283   7.172
15178SOL     OW50380   4.041   5.837   7.387
15178SOL    HW150381   4.112   5.908   7.393
15178SOL    HW250382   3.953   5.876   7.415
15179SOL     OW50383   5.190   7.003   6.539
15179SOL    HW150384   5.131   7.009   6.619
15179SOL    HW250385   5.175   6.915   6.493
15180SOL     OW50386   5.391   7.300   6.158
15180SOL    HW150387   5.350   7.277   6.070
15180SOL    HW250388   5.373   7.226   6.223
15181SOL     OW50389   4.322   6.315   5.856
15181SOL    HW150390   4.346   6.384   5.788
15181SOL    HW250391   4.244   6.348   5.910
15182SOL     OW50392   5.005   5.931   6.530
15182SOL    HW150393   4.919   5.881   6.517
15182SOL    HW250394   5.067   5.877   6.586
15183SOL     OW50395   5.300   7.248   5.893
15183SOL    HW150396   5.389   7.294   5.896
15183SOL    HW250397   5.279   7.224   5.798
15184SOL     OW50398   5.118   6.055   7.260
15184SOL    HW150399   5.098   6.098   7.348
15184SOL    HW250400   5.196   5.993   7.269
15185SOL     OW50401   4.697   6.476   7.158
15185SOL    HW150402   4.743   6.392   7.129
15185SOL    HW250403   4.641   6.510   7.083
15186SOL     OW50404   4.715   5.996   6.828
15186SOL    HW150405   4.638   6.030   6.882
15186SOL    HW250406   4.681   5.945   6.749
15187SOL     OW50407   4.765   6.287   6.015
15187SOL    HW150408   4.791   6.283   6.111
15187SOL    HW250409   4.680   6.236   6.001
15188SOL     OW50410   3.800   6.397   6.375
15188SOL    HW150411   3.899   6.385   6.384
15188SOL    HW250412   3.776   6.492   6.396
15189SOL     OW50413   3.854   7.407   7.157
15189SOL    HW150414   3.844   7.392   7.256
15189SOL    HW250415   3.768   7.443   7.121
15190SOL     OW50416   4.589   5.934   5.781
15190SOL    HW150417   4.648   5.997   5.732
15190SOL    HW250418   4.608   5.840   5.752
15191SOL     OW50419   5.443   6.171   7.417
15191SOL    HW150420   5.417   6.260   7.381
15191SOL    HW250421   5.441   6.103   7.344
15192SOL     OW50422   5.086   6.730   6.131
15192SOL    HW150423   5.169   6.701   6.083
15192SOL    HW250424   5.037   6.797   6.075
15193SOL     OW50425   4.274   5.782   6.471
15193SOL    HW150426   4.269   5.777   6.571
15193SOL    HW250427   4.276   5.878   6.442
15194SOL     OW50428   4.075   7.387   6.439
15194SOL    HW150429   4.125   7.301   6.445
15194SOL    HW250430   4.140   7.464   6.436
15195SOL     OW50431   5.519   6.652   6.459
15195SOL    HW150432   5.457   6.637   6.383
15195SOL    HW250433   5.467   6.663   6.544
15196SOL     OW50434   4.951   7.136   7.092
15196SOL    HW150435   4.957   7.059   7.156
15196SOL    HW250436   4.899   7.110   7.012
15197SOL     OW50437   4.045   6.529   5.828
15197SOL    HW150438   4.127   6.568   5.786
15197SOL    HW250439   4.018   6.447   5.779
15198SOL     OW50440   5.182   6.321   6.314
15198SOL    HW150441   5.177   6.256   6.389
15198SOL    HW250442   5.262   6.380   6.327
15199SOL     OW50443   4.185   6.852   7.313
15199SOL    HW150444   4.135   6.853   7.227
15199SOL    HW250445   4.122   6.834   7.389
15200SOL     OW50446   4.835   7.362   5.823
15200SOL    HW150447   4.775   7.300   5.873
15200SOL    HW250448   4.866   7.318   5.738
15201SOL     OW50449   3.926   5.871   7.084
15201SOL    HW150450   3.846   5.931   7.071
15201SOL    HW250451   3.916   5.822   7.170
15202SOL     OW50452   5.356   6.963   5.667
15202SOL    HW150453   5.324   7.057   5.657
15202SOL    HW250454   5.280   6.900   5.655
15203SOL     OW50455   4.188   7.329   5.909
15203SOL    HW150456   4.221   7.368   5.995
15203SOL    HW250457   4.264   7.322   5.844
15204SOL     OW50458   5.124   5.693   6.012
15204SOL    HW150459   5.100   5.656   5.922
15204SOL    HW250460   5.223   5.709   6.016
15205SOL     OW50461   3.973   7.371   6.827
15205SOL    HW150462   4.030   7.306   6.877
15205SOL    HW250463   3.957   7.338   6.734
15206SOL     OW50464   4.664   7.284   6.490
15206SOL    HW150465   4.744   7.227   6.511
15206SOL    HW250466   4.615   7.244   6.413
15207SOL     OW50467   4.106   6.286   6.066
15207SOL    HW150468   4.151   6.196   6.063
15207SOL    HW250469   4.012   6.275   6.099
15208SOL     OW50470   5.271   5.808   7.315
15208SOL    HW150471   5.266   5.845   7.407
15208SOL    HW250472   5.199   5.739   7.303
15209SOL     OW50473   4.338   5.708   5.703
15209SOL    HW150474   4.436   5.686   5.710
15209SOL    HW250475   4.307   5.691   5.610
15210SOL     OW50476   4.505   5.850   7.335
15210SOL    HW150477   4.572   5.789   7.378
15210SOL    HW250478   4.432   5.869   7.400
15211SOL     OW50479   4.612   7.100   6.781
15211SOL    HW150480   4.589   7.075   6.687
15211SOL    HW250481   4.673   7.031   6.820
15212SOL     OW50482   5.075   6.176   7.019
15212SOL    HW150483   5.103   6.133   7.104
15212SOL    HW250484   5.100   6.272   7.020
15213SOL     OW50485   4.527   6.988   6.510
15213SOL    HW150486   4.617   7.002   6.468
15213SOL    HW250487   4.456   6.990   6.439
15214SOL     OW50488   4.646   6.089   6.485
15214SOL    HW150489   4.621   6.080   6.389
15214SOL    HW250490   4.694   6.007   6.516
15215SOL     OW50491   4.263   5.650   6.098
15215SOL    HW150492   4.182   5.651   6.156
15215SOL    HW250493   4.266   5.733   6.043
15216SOL     OW50494   5.158   6.774   5.627
15216SOL    HW150495   5.190   6.698   5.684
15216SOL    HW250496   5.066   6.801   5.657
15217SOL     OW50497   4.021   5.621   5.757
15217SOL    HW150498   4.070   5.705   5.736
15217SOL    HW250499   4.083   5.556   5.802
15218SOL     OW50500   4.659   5.822   6.066
15218SOL    HW150501   4.611   5.863   5.988
15218SOL    HW250502   4.758   5.820   6.047
15219SOL     OW50503   4.800   6.269   7.050
15219SOL    HW150504   4.720   6.208   7.053
15219SOL    HW250505   4.881   6.216   7.026
15220SOL     OW50506   4.951   7.156   6.379
15220SOL    HW150507   4.972   7.230   6.314
15220SOL    HW250508   5.019   7.156   6.452
15221SOL     OW50509   4.183   6.738   6.327
15221SOL    HW150510   4.112   6.711   6.392
15221SOL    HW250511   4.157   6.710   6.234
15222SOL     OW50512   4.995   7.383   6.177
15222SOL    HW150513   5.039   7.447   6.113
15222SOL    HW250514   4.945   7.435   6.247
15223SOL     OW50515   4.756   6.135   5.602
15223SOL    HW150516   4.715   6.217   5.563
15223SOL    HW250517   4.820   6.161   5.675
15224SOL     OW50518   3.802   6.142   6.972
15224SOL    HW150519   3.894   6.141   6.931
15224SOL    HW250520   3.796   6.216   7.039
15225SOL     OW50521   4.285   5.808   6.733
15225SOL    HW150522   4.323   5.724   6.770
15225SOL    HW250523   4.197   5.827   6.777
15226SOL     OW50524   4.590   6.040   6.228
15226SOL    HW150525   4.558   6.112   6.166
15226SOL    HW250526   4.614   5.959   6.175
15227SOL     OW50527   4.741   5.625   6.339
15227SOL    HW150528   4.669   5.630   6.270
15227SOL    HW250529   4.717   5.556   6.408
15228SOL     OW50530   5.153   6.759   6.453
15228SOL    HW150531   5.098   6.675   6.446
15228SOL    HW250532   5.179   6.788   6.361
15229SOL     OW50533   5.190   6.176   6.578
15229SOL    HW150534   5.160   6.081   6.585
15229SOL    HW250535   5.263   6.192   6.644
15230SOL     OW50536   4.212   6.971   5.760
15230SOL    HW150537   4.125   6.956   5.807
15230SOL    HW250538   4.195   6.997   5.665
15231SOL     OW50539   5.388   6.866   6.243
15231SOL    HW150540   5.487   6.874   6.257
15231SOL    HW250541   5.343   6.950   6.274
15232SOL     OW50542   5.114   6.161   5.664
15232SOL    HW150543   5.060   6.140   5.745
15232SOL    HW250544   5.205   6.120   5.673
15233SOL     OW50545   4.251   5.842   5.914
15233SOL    HW150546   4.278   5.783   5.839
15233SOL    HW250547   4.251   5.937   5.883
15234SOL     OW50548   5.478   6.809   7.174
15234SOL    HW150549   5.569   6.770   7.161
15234SOL    HW250550   5.486   6.905   7.198
15235SOL     OW50551   4.788   6.933   6.926
15235SOL    HW150552   4.708   6.910   6.981
15235SOL    HW250553   4.871   6.907   6.975
15236SOL     OW50554   5.316   7.215   7.211
15236SOL    HW150555   5.343   7.249   7.121
15236SOL    HW250556   5.395   7.177   7.257
15237SOL     OW50557   4.835   6.781   6.686
15237SOL    HW150558   4.795   6.825   6.767
15237SOL    HW250559   4.794   6.818   6.603
15238SOL     OW50560   5.362   6.685   6.665
15238SOL    HW150561   5.367   6.766   6.724
15238SOL    HW250562   5.276   6.687   6.614
15239SOL     OW50563   4.639   5.675   6.988
15239SOL    HW150564   4.664   5.655   6.893
15239SOL    HW250565   4.711   5.731   7.030
15240SOL     OW50566   4.704   6.702   7.305
15240SOL    HW150567   4.605   6.708   7.315
15240SOL    HW250568   4.727   6.622   7.249
15241SOL     OW50569   4.429   6.636   5.954
15241SOL    HW150570   4.415   6.643   6.053
15241SOL    HW250571   4.513   6.585   5.936
15242SOL     OW50572   4.134   6.399   6.837
15242SOL    HW150573   4.220   6.411   6.887
15242SOL    HW250574   4.092   6.312   6.864
15243SOL     OW50575   4.998   5.972   6.848
15243SOL    HW150576   5.019   6.046   6.912
15243SOL    HW250577   4.909   5.989   6.805
15244SOL     OW50578   3.788   7.150   6.917
15244SOL    HW150579   3.742   7.232   6.883
15244SOL    HW250580   3.886   7.169   6.926
15245SOL     OW50581   4.091   6.686   6.087
15245SOL    HW150582   4.084   6.769   6.031
15245SOL    HW250583   4.095   6.606   6.027
15246SOL     OW50584   4.290   6.123   6.451
15246SOL    HW150585   4.302   6.189   6.377
15246SOL    HW250586   4.336   6.157   6.534
15247SOL     OW50587   4.976   6.934   5.974
15247SOL    HW150588   5.026   7.011   6.014
15247SOL    HW250589   4.881   6.936   6.006
15248SOL     OW50590   4.996   7.031   6.728
15248SOL    HW150591   5.043   7.044   6.815
15248SOL    HW250592   4.930   6.957   6.737
15249SOL     OW50593   5.306   6.225   6.058
15249SOL    HW150594   5.275   6.286   6.131
15249SOL    HW250595   5.356   6.277   5.989
15250SOL     OW50596   4.078   7.096   6.915
15250SOL    HW150597   4.057   7.052   6.828
15250SOL    HW250598   4.175   7.122   6.918
15251SOL     OW50599   4.126   6.337   7.184
15251SOL    HW150600   4.194   6.392   7.137
15251SOL    HW250601   4.166   6.249   7.211
15252SOL     OW50602   5.311   6.365   7.256
15252SOL    HW150603   5.219   6.403   7.251
15252SOL    HW250604   5.371   6.412   7.191
15253SOL     OW50605   4.737   5.691   7.356
15253SOL    HW150606   4.743   5.776   7.304
15253SOL    HW250607   4.769   5.615   7.299
15254SOL     OW50608   4.228   5.636   7.326
15254SOL    HW150609   4.186   5.579   7.256
15254SOL    HW250610   4.162   5.705   7.358
15255SOL     OW50611   4.297   6.456   6.615
15255SOL    HW150612   4.341   6.545   6.606
15255SOL    HW250613   4.234   6.456   6.692
15256SOL     OW50614   5.084   6.448   6.631
15256SOL    HW150615   5.009   6.448   6.565
15256SOL    HW250616   5.121   6.356   6.640
15257SOL     OW50617   4.933   6.111   5.861
15257SOL    HW150618   4.946   6.027   5.915
15257SOL    HW250619   4.904   6.185   5.921
15258SOL     OW50620   4.031   5.799   6.817
15258SOL    HW150621   4.008   5.836   6.907
15258SOL    HW250622   4.001   5.704   6.811
15259SOL     OW50623   3.761   6.896   6.868
15259SOL    HW150624   3.814   6.847   6.936
15259SOL    HW250625   3.783   6.994   6.873
15260SOL     OW50626   4.456   6.220   6.650
15260SOL    HW150627   4.515   6.194   6.574
15260SOL    HW250628   4.428   6.316   6.639
15261SOL     OW50629   5.452   6.521   7.440
15261SOL    HW150630   5.406   6.514   7.351
15261SOL    HW250631   5.390   6.565   7.506
15262SOL     OW50632   4.031   5.649   6.204
15262SOL    HW150633   4.020   5.743   6.237
15262SOL    HW250634   4.026   5.586   6.281
15263SOL     OW50635   5.346   5.953   5.960
15263SOL    HW150636   5.348   5.877   6.024
15263SOL    HW250637   5.298   6.030   6.000
15264SOL     OW50638   4.747   6.352   6.552
15264SOL    HW150639   4.762   6.373   6.648
15264SOL    HW250640   4.717   6.257   6.543
15265SOL     OW50641   4.704   7.159   7.286
15265SOL    HW150642   4.684   7.203   7.198
15265SOL    HW250643   4.743   7.068   7.270
15266SOL     OW50644   5.583   7.104   7.191
15266SOL    HW150645   5.597   7.131   7.096
15266SOL    HW250646   5.666   7.126   7.244
15267SOL     OW50647   4.074   6.484   7.390
15267SOL    HW150648   4.150   6.528   7.438
15267SOL    HW250649   4.109   6.437   7.308
15268SOL     OW50650   5.264   5.860   5.711
15268SOL    HW150651   5.203   5.785   5.734
15268SOL    HW250652   5.286   5.912   5.794
15269SOL     OW50653   5.027   6.424   5.628
15269SOL    HW150654   5.061   6.331   5.643
15269SOL    HW250655   5.045   6.451   5.533
15270SOL     OW50656   4.792   6.919   6.435
15270SOL    HW150657   4.799   6.835   6.380
15270SOL    HW250658   4.854   6.988   6.399
15271SOL     OW50659   4.043   6.396   6.535
15271SOL    HW150660   4.136   6.432   6.540
15271SOL    HW250661   4.037   6.311   6.587
15272SOL     OW50662   4.063   6.095   6.592
15272SOL    HW150663   4.011   6.012   6.575
15272SOL    HW250664   4.140   6.100   6.528
15273SOL     OW50665   4.862   5.966   7.264
15273SOL    HW150666   4.817   6.029   7.328
15273SOL    HW250667   4.955   5.997   7.247
15274SOL     OW50668   4.884   5.793   7.063
15274SOL    HW150669   4.884   5.857   7.140
15274SOL    HW250670   4.912   5.841   6.980
15275SOL     OW50671   3.732   6.912   5.786
15275SOL    HW150672   3.639   6.933   5.755
15275SOL    HW250673   3.742   6.813   5.799
15276SOL     OW50674   3.812   7.387   6.513
15276SOL    HW150675   3.770   7.301   6.486
15276SOL    HW250676   3.906   7.390   6.479
15277SOL     OW50677   4.228   7.154   6.496
15277SOL    HW150678   4.294   7.228   6.505
15277SOL    HW250679   4.272   7.075   6.454
15278SOL     OW50680   4.726   6.382   6.824
15278SOL    HW150681   4.767   6.350   6.910
15278SOL    HW250682   4.630   6.355   6.821
15279SOL     OW50683   3.764   6.130   6.700
15279SOL    HW150684   3.849   6.097   6.659
15279SOL    HW250685   3.777   6.145   6.798
15280SOL     OW50686   3.913   6.106   7.308
15280SOL    HW150687   3.972   6.066   7.238
15280SOL    HW250688   3.855   6.177   7.267
15281SOL     OW50689   5.093   6.536   7.246
15281SOL    HW150690   5.132   6.625   7.266
15281SOL    HW250691   5.103   6.516   7.149
15282SOL     OW50692   4.539   6.158   5.911
15282SOL    HW150693   4.546   6.069   5.865
15282SOL    HW250694   4.445   6.192   5.903
15283SOL     OW50695   5.381   6.190   6.792
15283SOL    HW150696   5.343   6.121   6.854
15283SOL    HW250697   5.463   6.154   6.748
15284SOL     OW50698   3.976   7.150   7.330
15284SOL    HW150699   3.946   7.207   7.406
15284SOL    HW250700   3.969   7.053   7.356
15285SOL     OW50701   4.395   6.050   6.855
15285SOL    HW150702   4.361   5.961   6.825
15285SOL    HW250703   4.421   6.104   6.775
15286SOL     OW50704   4.654   7.264   7.051
15286SOL    HW150705   4.630   7.246   6.956
15286SOL    HW250706   4.684   7.358   7.061
15287SOL     OW50707   4.197   6.086   5.777
15287SOL    HW150708   4.258   6.166   5.781
15287SOL    HW250709   4.102   6.117   5.784
15288SOL     OW50710   3.883   6.723   7.052
15288SOL    HW150711   3.905   6.662   7.128
15288SOL    HW250712   3.893   6.674   6.966
15289SOL     OW50713   5.071   6.645   6.820
15289SOL    HW150714   5.095   6.582   6.746
15289SOL    HW250715   4.981   6.685   6.802
15290SOL     OW50716   5.026   6.441   5.895
15290SOL    HW150717   4.940   6.410   5.937
15290SOL    HW250718   5.022   6.427   5.796
15291SOL     OW50719   5.483   7.333   6.740
15291SOL    HW150720   5.544   7.363   6.667
15291SOL    HW250721   5.445   7.244   6.718
15292SOL     OW50722   4.976   7.317   6.714
15292SOL    HW150723   5.060   7.322   6.660
15292SOL    HW250724   4.953   7.221   6.732
15293SOL     OW50725   3.807   6.844   6.608
15293SOL    HW150726   3.802   6.843   6.708
15293SOL    HW250727   3.724   6.803   6.570
15294SOL     OW50728   4.412   7.248   7.302
15294SOL    HW150729   4.356   7.329   7.311
15294SOL    HW250730   4.464   7.252   7.216
15295SOL     OW50731   5.450   5.721   6.109
15295SOL    HW150732   5.523   5.704   6.042
15295SOL    HW250733   5.419   5.634   6.147
15296SOL     OW50734   5.112   7.159   6.063
15296SOL    HW150735   5.179   7.171   5.989
15296SOL    HW250736   5.072   7.248   6.086
15297SOL     OW50737   3.854   7.380   7.437
15297SOL    HW150738   3.813   7.306   7.490
15297SOL    HW250739   3.918   7.431   7.495
15298SOL     OW50740   5.004   6.513   6.258
15298SOL    HW150741   5.064   6.432   6.260
15298SOL    HW250742   5.044   6.582   6.198
15299SOL     OW50743   4.554   6.859   7.008
15299SOL    HW150744   4.549   6.892   7.103
15299SOL    HW250745   4.468   6.878   6.962
15300SOL     OW50746   4.396   7.202   5.740
15300SOL    HW150747   4.405   7.212   5.641
15300SOL    HW250748   4.356   7.113   5.761
15301SOL     OW50749   5.374   7.306   6.980
15301SOL    HW150750   5.427   7.316   6.896
15301SOL    HW250751   5.347   7.396   7.014
15302SOL     OW50752   5.565   5.761   6.549
15302SOL    HW150753   5.604   5.676   6.513
15302SOL    HW250754   5.467   5.763   6.530
15303SOL     OW50755   3.987   5.912   6.306
15303SOL    HW150756   3.908   5.963   6.272
15303SOL    HW250757   3.978   5.897   6.404
15304SOL     OW50758   4.918   7.198   5.617
15304SOL    HW150759   4.924   7.105   5.654
15304SOL    HW250760   4.859   7.198   5.537
15305SOL     OW50761   4.546   6.588   6.958
15305SOL    HW150762   4.586   6.587   6.866
15305SOL    HW250763   4.556   6.680   6.998
15306SOL     OW50764   4.640   6.496   5.877
15306SOL    HW150765   4.703   6.534   5.809
15306SOL    HW250766   4.680   6.413   5.916
15307SOL     OW50767   5.228   7.193   5.630
15307SOL    HW150768   5.136   7.230   5.637
15307SOL    HW250769   5.266   7.213   5.540
15308SOL     OW50770   4.096   6.874   7.076
15308SOL    HW150771   4.083   6.967   7.042
15308SOL    HW250772   4.012   6.822   7.063
15309SOL     OW50773   5.338   6.878   6.875
15309SOL    HW150774   5.398   6.881   6.955
15309SOL    HW250775   5.263   6.942   6.888
15310SOL     OW50776   4.763   6.684   6.282
15310SOL    HW150777   4.693   6.637   6.336
15310SOL    HW250778   4.822   6.616   6.239
15311SOL     OW50779   4.738   5.822   6.557
15311SOL    HW150780   4.730   5.786   6.464
15311SOL    HW250781   4.736   5.746   6.622
15312SOL     OW50782   4.314   7.073   6.077
15312SOL    HW150783   4.356   7.015   6.007
15312SOL    HW250784   4.270   7.152   6.033
15313SOL     OW50785   5.433   5.971   6.967
15313SOL    HW150786   5.506   6.040   6.971
15313SOL    HW250787   5.461   5.896   6.908
15314SOL     OW50788   3.979   6.934   5.876
15314SOL    HW150789   3.883   6.935   5.849
15314SOL    HW250790   3.991   6.987   5.960
15315SOL     OW50791   3.829   6.599   7.312
15315SOL    HW150792   3.752   6.566   7.366
15315SOL    HW250793   3.914   6.569   7.354
15316SOL     OW50794   4.396   5.789   7.075
15316SOL    HW150795   4.486   5.773   7.035
15316SOL    HW250796   4.404   5.794   7.174
15317SOL     OW50797   3.799   5.931   5.619
15317SOL    HW150798   3.707   5.903   5.590
15317SOL    HW250799   3.830   6.008   5.563
15318SOL     OW50800   5.164   6.442   6.984
15318SOL    HW150801   5.107   6.494   6.921
15318SOL    HW250802   5.260   6.454   6.960
15319SOL     OW50803   3.796   5.752   5.904
15319SOL    HW150804   3.779   5.835   5.850
15319SOL    HW250805   3.886   5.715   5.882
15320SOL     OW50806   4.907   6.921   5.705
15320SOL    HW150807   4.808   6.910   5.707
15320SOL    HW250808   4.941   6.936   5.798
15321SOL     OW50809   4.337   6.428   7.017
15321SOL    HW150810   4.393   6.509   7.000
15321SOL    HW250811   4.396   6.348   7.020
15322SOL     OW50812   5.217   7.353   6.545
15322SOL    HW150813   5.250   7.417   6.476
15322SOL    HW250814   5.283   7.347   6.620
15323SOL     OW50815   4.440   6.151   7.294
15323SOL    HW150816   4.459   6.216   7.368
15323SOL    HW250817   4.500   6.071   7.303
15324SOL     OW50818   4.114   7.327   7.146
15324SOL    HW150819   4.023   7.368   7.144
15324SOL    HW250820   4.107   7.233   7.178
15325SOL     OW50821   5.398   6.469   6.840
15325SOL    HW150822   5.371   6.380   6.803
15325SOL    HW250823   5.399   6.537   6.767
15326SOL     OW50824   4.949   5.911   6.035
15326SOL    HW150825   5.014   5.837   6.024
15326SOL    HW250826   4.969   5.961   6.119
15327SOL     OW50827   4.318   6.331   6.238
15327SOL    HW150828   4.368   6.416   6.219
15327SOL    HW250829   4.230   6.333   6.190
15328SOL     OW50830   5.501   5.928   7.228
15328SOL    HW150831   5.484   5.959   7.134
15328SOL    HW250832   5.417   5.891   7.266
15329SOL     OW50833   5.454   6.520   7.103
15329SOL    HW150834   5.492   6.611   7.118
15329SOL    HW250835   5.446   6.503   7.004
15330SOL     OW50836   4.583   6.960   5.602
15330SOL    HW150837   4.537   6.975   5.690
15330SOL    HW250838   4.627   7.045   5.572
15331SOL     OW50839   4.385   7.376   6.539
15331SOL    HW150840   4.339   7.464   6.526
15331SOL    HW250841   4.484   7.388   6.532
15332SOL     OW50842   4.583   6.542   6.447
15332SOL    HW150843   4.637   6.473   6.495
15332SOL    HW250844   4.551   6.611   6.513
15333SOL     OW50845   4.807   6.570   5.673
15333SOL    HW150846   4.784   6.623   5.591
15333SOL    HW250847   4.888   6.514   5.654
15334SOL     OW50848   5.585   7.155   6.437
15334SOL    HW150849   5.514   7.143   6.367
15334SOL    HW250850   5.586   7.076   6.497
15335SOL     OW50851   3.945   6.900   7.430
15335SOL    HW150852   3.880   6.827   7.409
15335SOL    HW250853   3.949   6.914   7.528
15336SOL     OW50854   3.803   6.826   6.239
15336SOL    HW150855   3.802   6.779   6.327
15336SOL    HW250856   3.885   6.798   6.188
15337SOL     OW50857   4.396   6.977   7.210
15337SOL    HW150858   4.318   6.927   7.248
15337SOL    HW250859   4.393   7.072   7.241
15338SOL     OW50860   5.548   5.778   6.813
15338SOL    HW150861   5.544   5.688   6.857
15338SOL    HW250862   5.551   5.767   6.714
15339SOL     OW50863   4.152   6.010   6.106
15339SOL    HW150864   4.182   5.938   6.044
15339SOL    HW250865   4.113   5.970   6.189
15340SOL     OW50866   5.429   7.073   6.690
15340SOL    HW150867   5.336   7.048   6.663
15340SOL    HW250868   5.455   7.023   6.772
15341SOL     OW50869   4.041   6.133   6.866
15341SOL    HW150870   4.079   6.074   6.938
15341SOL    HW250871   4.081   6.107   6.778
15342SOL     OW50872   4.536   7.172   6.273
15342SOL    HW150873   4.568   7.182   6.179
15342SOL    HW250874   4.457   7.110   6.275
15343SOL     OW50875   5.148   5.800   6.698
15343SOL    HW150876   5.200   5.735   6.753
15343SOL    HW250877   5.099   5.863   6.759
15344SOL     OW50878   4.725   5.620   6.740
15344SOL    HW150879   4.662   5.548   6.709
15344SOL    HW250880   4.818   5.584   6.740
15345SOL     OW50881   4.494   6.916   5.887
15345SOL    HW150882   4.448   6.829   5.904
15345SOL    HW250883   4.585   6.913   5.928
15346SOL     OW50884   4.342   7.153   6.870
15346SOL    HW150885   4.337   7.235   6.927
15346SOL    HW250886   4.431   7.150   6.825
15347SOL     OW50887   5.076   5.638   5.754
15347SOL    HW150888   5.111   5.597   5.670
15347SOL    HW250889   4.986   5.600   5.774
15348SOL     OW50890   5.024   6.039   6.277
15348SOL    HW150891   4.965   6.119   6.281
15348SOL    HW250892   5.039   6.004   6.370
15349SOL     OW50893   5.317   5.807   6.468
15349SOL    HW150894   5.233   5.806   6.522
15349SOL    HW250895   5.319   5.890   6.412
15350SOL     OW50896   3.763   6.663   5.886
15350SOL    HW150897   3.862   6.652   5.877
15350SOL    HW250898   3.723   6.577   5.918
15351SOL     OW50899   4.599   7.232   5.923
15351SOL    HW150900   4.522   7.197   5.869
15351SOL    HW250901   4.567   7.303   5.985
15352SOL     OW50902   3.954   6.214   7.561
15352SOL    HW150903   3.861   6.212   7.598
15352SOL    HW250904   3.955   6.175   7.469
15353SOL     OW50905   3.949   5.861   8.444
15353SOL    HW150906   3.984   5.844   8.536
15353SOL    HW250907   3.861   5.816   8.432
15354SOL     OW50908   3.743   5.954   8.095
15354SOL    HW150909   3.661   5.997   8.134
15354SOL    HW250910   3.715   5.881   8.032
15355SOL     OW50911   4.293   6.861   8.613
15355SOL    HW150912   4.200   6.854   8.576
15355SOL    HW250913   4.304   6.950   8.657
15356SOL     OW50914   5.279   7.097   8.151
15356SOL    HW150915   5.222   7.081   8.232
15356SOL    HW250916   5.220   7.107   8.071
15357SOL     OW50917   4.859   6.289   8.165
15357SOL    HW150918   4.916   6.367   8.140
15357SOL    HW250919   4.799   6.315   8.241
15358SOL     OW50920   5.479   6.193   7.679
15358SOL    HW150921   5.467   6.180   7.580
15358SOL    HW250922   5.449   6.112   7.728
15359SOL     OW50923   4.492   6.730   8.471
15359SOL    HW150924   4.414   6.747   8.531
15359SOL    HW250925   4.526   6.817   8.435
15360SOL     OW50926   4.574   6.384   9.271
15360SOL    HW150927   4.570   6.460   9.336
15360SOL    HW250928   4.596   6.420   9.180
15361SOL     OW50929   4.409   6.598   8.113
15361SOL    HW150930   4.478   6.582   8.183
15361SOL    HW250931   4.336   6.655   8.151
15362SOL     OW50932   4.410   6.747   9.251
15362SOL    HW150933   4.470   6.826   9.265
15362SOL    HW250934   4.324   6.778   9.210
15363SOL     OW50935   4.059   7.021   8.509
15363SOL    HW150936   3.981   6.990   8.456
15363SOL    HW250937   4.117   7.079   8.452
15364SOL     OW50938   5.184   7.091   8.787
15364SOL    HW150939   5.208   7.185   8.813
15364SOL    HW250940   5.168   7.037   8.869
15365SOL     OW50941   4.162   5.978   8.947
15365SOL    HW150942   4.244   5.922   8.956
15365SOL    HW250943   4.081   5.920   8.951
15366SOL     OW50944   5.327   6.033   8.185
15366SOL    HW150945   5.253   6.079   8.135
15366SOL    HW250946   5.378   6.101   8.238
15367SOL     OW50947   3.955   7.299   7.931
15367SOL    HW150948   3.989   7.376   7.985
15367SOL    HW250949   3.999   7.299   7.841
15368SOL     OW50950   4.851   6.927   9.138
15368SOL    HW150951   4.898   6.927   9.226
15368SOL    HW250952   4.803   6.840   9.127
15369SOL     OW50953   3.954   7.020   7.986
15369SOL    HW150954   3.928   7.116   7.986
15369SOL    HW250955   3.883   6.966   8.031
15370SOL     OW50956   3.964   6.677   8.334
15370SOL    HW150957   3.978   6.593   8.386
15370SOL    HW250958   3.909   6.741   8.389
15371SOL     OW50959   4.344   7.372   8.887
15371SOL    HW150960   4.252   7.355   8.922
15371SOL    HW250961   4.372   7.464   8.913
15372SOL     OW50962   4.330   6.550   7.571
15372SOL    HW150963   4.337   6.634   7.517
15372SOL    HW250964   4.376   6.563   7.659
15373SOL     OW50965   5.318   5.700   8.928
15373SOL    HW150966   5.300   5.767   8.856
15373SOL    HW250967   5.315   5.746   9.017
15374SOL     OW50968   5.566   7.353   7.807
15374SOL    HW150969   5.620   7.324   7.887
15374SOL    HW250970   5.596   7.443   7.778
15375SOL     OW50971   3.751   7.182   7.565
15375SOL    HW150972   3.732   7.086   7.586
15375SOL    HW250973   3.718   7.240   7.640
15376SOL     OW50974   5.413   6.508   8.060
15376SOL    HW150975   5.508   6.479   8.068
15376SOL    HW250976   5.405   6.573   7.985
15377SOL     OW50977   5.365   6.694   7.880
15377SOL    HW150978   5.451   6.696   7.828
15377SOL    HW250979   5.379   6.741   7.968
15378SOL     OW50980   3.837   6.323   9.045
15378SOL    HW150981   3.925   6.310   9.090
15378SOL    HW250982   3.824   6.420   9.023
15379SOL     OW50983   4.337   6.951   8.174
15379SOL    HW150984   4.288   6.864   8.183
15379SOL    HW250985   4.314   6.994   8.087
15380SOL     OW50986   5.017   6.814   8.871
15380SOL    HW150987   5.054   6.741   8.813
15380SOL    HW250988   5.069   6.819   8.956
15381SOL     OW50989   4.533   5.590   7.950
15381SOL    HW150990   4.573   5.681   7.941
15381SOL    HW250991   4.433   5.598   7.956
15382SOL     OW50992   3.921   6.562   8.712
15382SOL    HW150993   4.010   6.517   8.698
15382SOL    HW250994   3.848   6.497   8.693
15383SOL     OW50995   5.249   6.585   7.638
15383SOL    HW150996   5.186   6.509   7.651
15383SOL    HW250997   5.297   6.603   7.724
15384SOL     OW50998   4.911   7.378   9.064
15384SOL    HW150999   4.935   7.438   8.988
15384SOL    HW251000   4.918   7.283   9.034
15385SOL     OW51001   4.041   5.837   9.249
15385SOL    HW151002   4.112   5.908   9.255
15385SOL    HW251003   3.953   5.876   9.277
15386SOL     OW51004   5.190   7.003   8.401
15386SOL    HW151005   5.131   7.009   8.481
15386SOL    HW251006   5.175   6.915   8.355
15387SOL     OW51007   5.391   7.300   8.020
15387SOL    HW151008   5.350   7.277   7.932
15387SOL    HW251009   5.373   7.226   8.085
15388SOL     OW51010   4.322   6.315   7.718
15388SOL    HW151011   4.346   6.384   7.650
15388SOL    HW251012   4.244   6.348   7.772
15389SOL     OW51013   5.300   7.248   7.755
15389SOL    HW151014   5.389   7.294   7.758
15389SOL    HW251015   5.279   7.224   7.660
15390SOL     OW51016   4.531   6.191   8.913
15390SOL    HW151017   4.484   6.188   9.002
15390SOL    HW251018   4.480   6.136   8.847
15391SOL     OW51019   5.118   6.055   9.122
15391SOL    HW151020   5.098   6.098   9.210
15391SOL    HW251021   5.196   5.993   9.131
15392SOL     OW51022   4.697   6.476   9.020
15392SOL    HW151023   4.743   6.392   8.991
15392SOL    HW251024   4.641   6.510   8.945
15393SOL     OW51025   4.715   5.996   8.690
15393SOL    HW151026   4.638   6.030   8.744
15393SOL    HW251027   4.681   5.945   8.611
15394SOL     OW51028   4.765   6.287   7.877
15394SOL    HW151029   4.791   6.283   7.973
15394SOL    HW251030   4.680   6.236   7.863
15395SOL     OW51031   3.800   6.397   8.237
15395SOL    HW151032   3.899   6.385   8.246
15395SOL    HW251033   3.776   6.492   8.258
15396SOL     OW51034   3.854   7.407   9.019
15396SOL    HW151035   3.844   7.392   9.118
15396SOL    HW251036   3.768   7.443   8.983
15397SOL     OW51037   4.589   5.934   7.643
15397SOL    HW151038   4.648   5.997   7.594
15397SOL    HW251039   4.608   5.840   7.614
15398SOL     OW51040   5.443   6.171   9.279
15398SOL    HW151041   5.417   6.260   9.243
15398SOL    HW251042   5.441   6.103   9.206
15399SOL     OW51043   5.086   6.730   7.993
15399SOL    HW151044   5.169   6.701   7.945
15399SOL    HW251045   5.037   6.797   7.937
15400SOL     OW51046   4.274   5.782   8.333
15400SOL    HW151047   4.269   5.777   8.433
15400SOL    HW251048   4.276   5.878   8.304
15401SOL     OW51049   4.732   7.042   7.925
15401SOL    HW151050   4.686   7.114   7.873
15401SOL    HW251051   4.728   7.062   8.023
15402SOL     OW51052   4.075   7.387   8.301
15402SOL    HW151053   4.125   7.301   8.307
15402SOL    HW251054   4.140   7.464   8.298
15403SOL     OW51055   5.519   6.652   8.321
15403SOL    HW151056   5.457   6.637   8.245
15403SOL    HW251057   5.467   6.663   8.406
15404SOL     OW51058   4.951   7.136   8.954
15404SOL    HW151059   4.957   7.059   9.018
15404SOL    HW251060   4.899   7.110   8.874
15405SOL     OW51061   4.045   6.529   7.690
15405SOL    HW151062   4.127   6.568   7.648
15405SOL    HW251063   4.018   6.447   7.641
15406SOL     OW51064   5.182   6.321   8.176
15406SOL    HW151065   5.177   6.256   8.251
15406SOL    HW251066   5.262   6.380   8.189
15407SOL     OW51067   4.185   6.852   9.175
15407SOL    HW151068   4.135   6.853   9.089
15407SOL    HW251069   4.122   6.834   9.251
15408SOL     OW51070   4.835   7.362   7.685
15408SOL    HW151071   4.775   7.300   7.735
15408SOL    HW251072   4.866   7.318   7.600
15409SOL     OW51073   3.926   5.871   8.946
15409SOL    HW151074   3.846   5.931   8.933
15409SOL    HW251075   3.916   5.822   9.032
15410SOL     OW51076   5.356   6.963   7.529
15410SOL    HW151077   5.324   7.057   7.519
15410SOL    HW251078   5.280   6.900   7.517
15411SOL     OW51079   4.188   7.329   7.771
15411SOL    HW151080   4.221   7.368   7.857
15411SOL    HW251081   4.264   7.322   7.706
15412SOL     OW51082   5.124   5.693   7.874
15412SOL    HW151083   5.100   5.656   7.784
15412SOL    HW251084   5.223   5.709   7.878
15413SOL     OW51085   3.973   7.371   8.689
15413SOL    HW151086   4.030   7.306   8.739
15413SOL    HW251087   3.957   7.338   8.596
15414SOL     OW51088   4.664   7.284   8.352
15414SOL    HW151089   4.744   7.227   8.373
15414SOL    HW251090   4.615   7.244   8.275
15415SOL     OW51091   4.106   6.286   7.928
15415SOL    HW151092   4.151   6.196   7.925
15415SOL    HW251093   4.012   6.275   7.961
15416SOL     OW51094   5.271   5.808   9.177
15416SOL    HW151095   5.266   5.845   9.269
15416SOL    HW251096   5.199   5.739   9.165
15417SOL     OW51097   4.338   5.708   7.565
15417SOL    HW151098   4.436   5.686   7.572
15417SOL    HW251099   4.307   5.691   7.472
15418SOL     OW51100   4.505   5.850   9.197
15418SOL    HW151101   4.572   5.789   9.240
15418SOL    HW251102   4.432   5.869   9.262
15419SOL     OW51103   4.612   7.100   8.643
15419SOL    HW151104   4.589   7.075   8.549
15419SOL    HW251105   4.673   7.031   8.682
15420SOL     OW51106   5.075   6.176   8.881
15420SOL    HW151107   5.103   6.133   8.966
15420SOL    HW251108   5.100   6.272   8.882
15421SOL     OW51109   4.527   6.988   8.372
15421SOL    HW151110   4.617   7.002   8.330
15421SOL    HW251111   4.456   6.990   8.301
15422SOL     OW51112   4.646   6.089   8.347
15422SOL    HW151113   4.621   6.080   8.251
15422SOL    HW251114   4.694   6.007   8.378
15423SOL     OW51115   4.263   5.650   7.960
15423SOL    HW151116   4.182   5.651   8.018
15423SOL    HW251117   4.266   5.733   7.905
15424SOL     OW51118   5.158   6.774   7.489
15424SOL    HW151119   5.190   6.698   7.546
15424SOL    HW251120   5.066   6.801   7.519
15425SOL     OW51121   4.021   5.621   7.619
15425SOL    HW151122   4.070   5.705   7.598
15425SOL    HW251123   4.083   5.556   7.664
15426SOL     OW51124   4.659   5.822   7.928
15426SOL    HW151125   4.611   5.863   7.850
15426SOL    HW251126   4.758   5.820   7.909
15427SOL     OW51127   4.800   6.269   8.912
15427SOL    HW151128   4.720   6.208   8.915
15427SOL    HW251129   4.881   6.216   8.888
15428SOL     OW51130   4.951   7.156   8.241
15428SOL    HW151131   4.972   7.230   8.176
15428SOL    HW251132   5.019   7.156   8.314
15429SOL     OW51133   4.183   6.738   8.189
15429SOL    HW151134   4.112   6.711   8.254
15429SOL    HW251135   4.157   6.710   8.096
15430SOL     OW51136   4.995   7.383   8.039
15430SOL    HW151137   5.039   7.447   7.975
15430SOL    HW251138   4.945   7.435   8.109
15431SOL     OW51139   4.756   6.135   7.464
15431SOL    HW151140   4.715   6.217   7.425
15431SOL    HW251141   4.820   6.161   7.537
15432SOL     OW51142   3.802   6.142   8.834
15432SOL    HW151143   3.894   6.141   8.793
15432SOL    HW251144   3.796   6.216   8.901
15433SOL     OW51145   4.285   5.808   8.595
15433SOL    HW151146   4.323   5.724   8.632
15433SOL    HW251147   4.197   5.827   8.639
15434SOL     OW51148   4.590   6.040   8.090
15434SOL    HW151149   4.558   6.112   8.028
15434SOL    HW251150   4.614   5.959   8.037
15435SOL     OW51151   4.741   5.625   8.201
15435SOL    HW151152   4.669   5.630   8.132
15435SOL    HW251153   4.717   5.556   8.270
15436SOL     OW51154   5.153   6.759   8.315
15436SOL    HW151155   5.098   6.675   8.308
15436SOL    HW251156   5.179   6.788   8.223
15437SOL     OW51157   5.190   6.176   8.440
15437SOL    HW151158   5.160   6.081   8.447
15437SOL    HW251159   5.263   6.192   8.506
15438SOL     OW51160   5.581   6.419   7.825
15438SOL    HW151161   5.623   6.355   7.889
15438SOL    HW251162   5.543   6.368   7.747
15439SOL     OW51163   4.212   6.971   7.622
15439SOL    HW151164   4.125   6.956   7.669
15439SOL    HW251165   4.195   6.997   7.527
15440SOL     OW51166   5.388   6.866   8.105
15440SOL    HW151167   5.487   6.874   8.119
15440SOL    HW251168   5.343   6.950   8.136
15441SOL     OW51169   5.114   6.161   7.526
15441SOL    HW151170   5.060   6.140   7.607
15441SOL    HW251171   5.205   6.120   7.535
15442SOL     OW51172   4.251   5.842   7.776
15442SOL    HW151173   4.278   5.783   7.701
15442SOL    HW251174   4.251   5.937   7.745
15443SOL     OW51175   5.478   6.809   9.036
15443SOL    HW151176   5.569   6.770   9.023
15443SOL    HW251177   5.486   6.905   9.060
15444SOL     OW51178   4.788   6.933   8.788
15444SOL    HW151179   4.708   6.910   8.843
15444SOL    HW251180   4.871   6.907   8.837
15445SOL     OW51181   5.316   7.215   9.073
15445SOL    HW151182   5.343   7.249   8.983
15445SOL    HW251183   5.395   7.177   9.119
15446SOL     OW51184   4.835   6.781   8.548
15446SOL    HW151185   4.795   6.825   8.629
15446SOL    HW251186   4.794   6.818   8.465
15447SOL     OW51187   5.362   6.685   8.527
15447SOL    HW151188   5.367   6.766   8.586
15447SOL    HW251189   5.276   6.687   8.476
15448SOL     OW51190   4.639   5.675   8.850
15448SOL    HW151191   4.664   5.655   8.755
15448SOL    HW251192   4.711   5.731   8.892
15449SOL     OW51193   4.704   6.702   9.167
15449SOL    HW151194   4.605   6.708   9.177
15449SOL    HW251195   4.727   6.622   9.111
15450SOL     OW51196   4.429   6.636   7.816
15450SOL    HW151197   4.415   6.643   7.915
15450SOL    HW251198   4.513   6.585   7.798
15451SOL     OW51199   4.134   6.399   8.699
15451SOL    HW151200   4.220   6.411   8.749
15451SOL    HW251201   4.092   6.312   8.726
15452SOL     OW51202   4.998   5.972   8.710
15452SOL    HW151203   5.019   6.046   8.774
15452SOL    HW251204   4.909   5.989   8.667
15453SOL     OW51205   3.788   7.150   8.779
15453SOL    HW151206   3.742   7.232   8.745
15453SOL    HW251207   3.886   7.169   8.788
15454SOL     OW51208   4.091   6.686   7.949
15454SOL    HW151209   4.084   6.769   7.893
15454SOL    HW251210   4.095   6.606   7.889
15455SOL     OW51211   4.290   6.123   8.313
15455SOL    HW151212   4.302   6.189   8.239
15455SOL    HW251213   4.336   6.157   8.396
15456SOL     OW51214   4.976   6.934   7.836
15456SOL    HW151215   5.026   7.011   7.876
15456SOL    HW251216   4.881   6.936   7.868
15457SOL     OW51217   4.996   7.031   8.590
15457SOL    HW151218   5.043   7.044   8.677
15457SOL    HW251219   4.930   6.957   8.599
15458SOL     OW51220   5.306   6.225   7.920
15458SOL    HW151221   5.275   6.286   7.993
15458SOL    HW251222   5.356   6.277   7.851
15459SOL     OW51223   4.078   7.096   8.777
15459SOL    HW151224   4.057   7.052   8.690
15459SOL    HW251225   4.175   7.122   8.780
15460SOL     OW51226   4.126   6.337   9.046
15460SOL    HW151227   4.194   6.392   8.999
15460SOL    HW251228   4.166   6.249   9.073
15461SOL     OW51229   5.311   6.365   9.118
15461SOL    HW151230   5.219   6.403   9.113
15461SOL    HW251231   5.371   6.412   9.053
15462SOL     OW51232   4.737   5.691   9.218
15462SOL    HW151233   4.743   5.776   9.166
15462SOL    HW251234   4.769   5.615   9.161
15463SOL     OW51235   4.228   5.636   9.188
15463SOL    HW151236   4.186   5.579   9.118
15463SOL    HW251237   4.162   5.705   9.220
15464SOL     OW51238   5.084   6.448   8.493
15464SOL    HW151239   5.009   6.448   8.427
15464SOL    HW251240   5.121   6.356   8.502
15465SOL     OW51241   4.933   6.111   7.723
15465SOL    HW151242   4.946   6.027   7.777
15465SOL    HW251243   4.904   6.185   7.783
15466SOL     OW51244   4.031   5.799   8.679
15466SOL    HW151245   4.008   5.836   8.769
15466SOL    HW251246   4.001   5.704   8.673
15467SOL     OW51247   3.761   6.896   8.730
15467SOL    HW151248   3.814   6.847   8.798
15467SOL    HW251249   3.783   6.994   8.735
15468SOL     OW51250   4.456   6.220   8.512
15468SOL    HW151251   4.515   6.194   8.436
15468SOL    HW251252   4.428   6.316   8.501
15469SOL     OW51253   5.452   6.521   9.302
15469SOL    HW151254   5.406   6.514   9.213
15469SOL    HW251255   5.390   6.565   9.368
15470SOL     OW51256   4.031   5.649   8.066
15470SOL    HW151257   4.020   5.743   8.099
15470SOL    HW251258   4.026   5.586   8.143
15471SOL     OW51259   5.346   5.953   7.822
15471SOL    HW151260   5.348   5.877   7.886
15471SOL    HW251261   5.298   6.030   7.862
15472SOL     OW51262   4.747   6.352   8.414
15472SOL    HW151263   4.762   6.373   8.510
15472SOL    HW251264   4.717   6.257   8.405
15473SOL     OW51265   4.704   7.159   9.148
15473SOL    HW151266   4.684   7.203   9.060
15473SOL    HW251267   4.743   7.068   9.132
15474SOL     OW51268   5.583   7.104   9.053
15474SOL    HW151269   5.597   7.131   8.958
15474SOL    HW251270   5.666   7.126   9.106
15475SOL     OW51271   4.074   6.484   9.252
15475SOL    HW151272   4.150   6.528   9.300
15475SOL    HW251273   4.109   6.437   9.170
15476SOL     OW51274   5.264   5.860   7.573
15476SOL    HW151275   5.203   5.785   7.596
15476SOL    HW251276   5.286   5.912   7.656
15477SOL     OW51277   5.027   6.424   7.490
15477SOL    HW151278   5.061   6.331   7.505
15477SOL    HW251279   5.045   6.451   7.395
15478SOL     OW51280   4.043   6.396   8.397
15478SOL    HW151281   4.136   6.432   8.402
15478SOL    HW251282   4.037   6.311   8.449
15479SOL     OW51283   4.063   6.095   8.454
15479SOL    HW151284   4.011   6.012   8.437
15479SOL    HW251285   4.140   6.100   8.390
15480SOL     OW51286   4.862   5.966   9.126
15480SOL    HW151287   4.817   6.029   9.190
15480SOL    HW251288   4.955   5.997   9.109
15481SOL     OW51289   4.884   5.793   8.925
15481SOL    HW151290   4.884   5.857   9.002
15481SOL    HW251291   4.912   5.841   8.842
15482SOL     OW51292   3.732   6.912   7.648
15482SOL    HW151293   3.639   6.933   7.617
15482SOL    HW251294   3.742   6.813   7.661
15483SOL     OW51295   3.812   7.387   8.375
15483SOL    HW151296   3.770   7.301   8.348
15483SOL    HW251297   3.906   7.390   8.341
15484SOL     OW51298   4.228   7.154   8.358
15484SOL    HW151299   4.294   7.228   8.367
15484SOL    HW251300   4.272   7.075   8.316
15485SOL     OW51301   4.726   6.382   8.686
15485SOL    HW151302   4.767   6.350   8.772
15485SOL    HW251303   4.630   6.355   8.683
15486SOL     OW51304   3.764   6.130   8.562
15486SOL    HW151305   3.849   6.097   8.521
15486SOL    HW251306   3.777   6.145   8.660
15487SOL     OW51307   3.913   6.106   9.170
15487SOL    HW151308   3.972   6.066   9.100
15487SOL    HW251309   3.855   6.177   9.129
15488SOL     OW51310   5.093   6.536   9.108
15488SOL    HW151311   5.132   6.625   9.128
15488SOL    HW251312   5.103   6.516   9.011
15489SOL     OW51313   4.539   6.158   7.773
15489SOL    HW151314   4.546   6.069   7.727
15489SOL    HW251315   4.445   6.192   7.765
15490SOL     OW51316   5.381   6.190   8.654
15490SOL    HW151317   5.343   6.121   8.716
15490SOL    HW251318   5.463   6.154   8.610
15491SOL     OW51319   3.976   7.150   9.192
15491SOL    HW151320   3.946   7.207   9.268
15491SOL    HW251321   3.969   7.053   9.218
15492SOL     OW51322   4.395   6.050   8.717
15492SOL    HW151323   4.361   5.961   8.687
15492SOL    HW251324   4.421   6.104   8.637
15493SOL     OW51325   4.654   7.264   8.913
15493SOL    HW151326   4.630   7.246   8.818
15493SOL    HW251327   4.684   7.358   8.923
15494SOL     OW51328   4.197   6.086   7.639
15494SOL    HW151329   4.258   6.166   7.643
15494SOL    HW251330   4.102   6.117   7.646
15495SOL     OW51331   3.883   6.723   8.914
15495SOL    HW151332   3.905   6.662   8.990
15495SOL    HW251333   3.893   6.674   8.828
15496SOL     OW51334   5.071   6.645   8.682
15496SOL    HW151335   5.095   6.582   8.608
15496SOL    HW251336   4.981   6.685   8.664
15497SOL     OW51337   5.026   6.441   7.757
15497SOL    HW151338   4.940   6.410   7.799
15497SOL    HW251339   5.022   6.427   7.658
15498SOL     OW51340   5.483   7.333   8.602
15498SOL    HW151341   5.544   7.363   8.529
15498SOL    HW251342   5.445   7.244   8.580
15499SOL     OW51343   4.976   7.317   8.576
15499SOL    HW151344   5.060   7.322   8.522
15499SOL    HW251345   4.953   7.221   8.594
15500SOL     OW51346   3.807   6.844   8.470
15500SOL    HW151347   3.802   6.843   8.570
15500SOL    HW251348   3.724   6.803   8.432
15501SOL     OW51349   4.412   7.248   9.164
15501SOL    HW151350   4.356   7.329   9.173
15501SOL    HW251351   4.464   7.252   9.078
15502SOL     OW51352   5.450   5.721   7.971
15502SOL    HW151353   5.523   5.704   7.904
15502SOL    HW251354   5.419   5.634   8.009
15503SOL     OW51355   5.112   7.159   7.925
15503SOL    HW151356   5.179   7.171   7.851
15503SOL    HW251357   5.072   7.248   7.948
15504SOL     OW51358   3.854   7.380   9.299
15504SOL    HW151359   3.813   7.306   9.352
15504SOL    HW251360   3.918   7.431   9.357
15505SOL     OW51361   5.004   6.513   8.120
15505SOL    HW151362   5.064   6.432   8.122
15505SOL    HW251363   5.044   6.582   8.060
15506SOL     OW51364   4.554   6.859   8.870
15506SOL    HW151365   4.549   6.892   8.965
15506SOL    HW251366   4.468   6.878   8.824
15507SOL     OW51367   4.396   7.202   7.602
15507SOL    HW151368   4.405   7.212   7.503
15507SOL    HW251369   4.356   7.113   7.623
15508SOL     OW51370   5.374   7.306   8.842
15508SOL    HW151371   5.427   7.316   8.758
15508SOL    HW251372   5.347   7.396   8.876
15509SOL     OW51373   5.565   5.761   8.411
15509SOL    HW151374   5.604   5.676   8.375
15509SOL    HW251375   5.467   5.763   8.392
15510SOL     OW51376   3.987   5.912   8.168
15510SOL    HW151377   3.908   5.963   8.134
15510SOL    HW251378   3.978   5.897   8.266
15511SOL     OW51379   4.918   7.198   7.479
15511SOL    HW151380   4.924   7.105   7.516
15511SOL    HW251381   4.859   7.198   7.399
15512SOL     OW51382   4.546   6.588   8.820
15512SOL    HW151383   4.586   6.587   8.728
15512SOL    HW251384   4.556   6.680   8.860
15513SOL     OW51385   4.640   6.496   7.739
15513SOL    HW151386   4.703   6.534   7.671
15513SOL    HW251387   4.680   6.413   7.778
15514SOL     OW51388   5.228   7.193   7.492
15514SOL    HW151389   5.136   7.230   7.499
15514SOL    HW251390   5.266   7.213   7.402
15515SOL     OW51391   4.096   6.874   8.938
15515SOL    HW151392   4.083   6.967   8.904
15515SOL    HW251393   4.012   6.822   8.925
15516SOL     OW51394   4.763   6.684   8.144
15516SOL    HW151395   4.693   6.637   8.198
15516SOL    HW251396   4.822   6.616   8.101
15517SOL     OW51397   4.738   5.822   8.419
15517SOL    HW151398   4.730   5.786   8.326
15517SOL    HW251399   4.736   5.746   8.484
15518SOL     OW51400   4.314   7.073   7.939
15518SOL    HW151401   4.356   7.015   7.869
15518SOL    HW251402   4.270   7.152   7.895
15519SOL     OW51403   5.433   5.971   8.829
15519SOL    HW151404   5.506   6.040   8.833
15519SOL    HW251405   5.461   5.896   8.770
15520SOL     OW51406   3.979   6.934   7.738
15520SOL    HW151407   3.883   6.935   7.711
15520SOL    HW251408   3.991   6.987   7.822
15521SOL     OW51409   3.829   6.599   9.174
15521SOL    HW151410   3.752   6.566   9.228
15521SOL    HW251411   3.914   6.569   9.216
15522SOL     OW51412   4.396   5.789   8.937
15522SOL    HW151413   4.486   5.773   8.897
15522SOL    HW251414   4.404   5.794   9.036
15523SOL     OW51415   3.799   5.931   7.481
15523SOL    HW151416   3.707   5.903   7.452
15523SOL    HW251417   3.830   6.008   7.425
15524SOL     OW51418   5.164   6.442   8.846
15524SOL    HW151419   5.107   6.494   8.783
15524SOL    HW251420   5.260   6.454   8.822
15525SOL     OW51421   3.796   5.752   7.766
15525SOL    HW151422   3.779   5.835   7.712
15525SOL    HW251423   3.886   5.715   7.744
15526SOL     OW51424   4.907   6.921   7.567
15526SOL    HW151425   4.808   6.910   7.569
15526SOL    HW251426   4.941   6.936   7.660
15527SOL     OW51427   4.337   6.428   8.879
15527SOL    HW151428   4.393   6.509   8.862
15527SOL    HW251429   4.396   6.348   8.882
15528SOL     OW51430   5.217   7.353   8.407
15528SOL    HW151431   5.250   7.417   8.338
15528SOL    HW251432   5.283   7.347   8.482
15529SOL     OW51433   4.440   6.151   9.156
15529SOL    HW151434   4.459   6.216   9.230
15529SOL    HW251435   4.500   6.071   9.165
15530SOL     OW51436   5.174   6.806   9.081
15530SOL    HW151437   5.165   6.796   9.180
15530SOL    HW251438   5.270   6.799   9.055
15531SOL     OW51439   4.114   7.327   9.008
15531SOL    HW151440   4.023   7.368   9.006
15531SOL    HW251441   4.107   7.233   9.040
15532SOL     OW51442   5.398   6.469   8.702
15532SOL    HW151443   5.371   6.380   8.665
15532SOL    HW251444   5.399   6.537   8.629
15533SOL     OW51445   4.949   5.911   7.897
15533SOL    HW151446   5.014   5.837   7.886
15533SOL    HW251447   4.969   5.961   7.981
15534SOL     OW51448   4.318   6.331   8.100
15534SOL    HW151449   4.368   6.416   8.081
15534SOL    HW251450   4.230   6.333   8.052
15535SOL     OW51451   5.454   6.520   8.965
15535SOL    HW151452   5.492   6.611   8.980
15535SOL    HW251453   5.446   6.503   8.866
15536SOL     OW51454   4.385   7.376   8.401
15536SOL    HW151455   4.339   7.464   8.388
15536SOL    HW251456   4.484   7.388   8.394
15537SOL     OW51457   4.583   6.542   8.309
15537SOL    HW151458   4.637   6.473   8.357
15537SOL    HW251459   4.551   6.611   8.375
15538SOL     OW51460   4.807   6.570   7.535
15538SOL    HW151461   4.784   6.623   7.453
15538SOL    HW251462   4.888   6.514   7.516
15539SOL     OW51463   5.585   7.155   8.299
15539SOL    HW151464   5.514   7.143   8.229
15539SOL    HW251465   5.586   7.076   8.359
15540SOL     OW51466   3.945   6.900   9.292
15540SOL    HW151467   3.880   6.827   9.271
15540SOL    HW251468   3.949   6.914   9.390
15541SOL     OW51469   3.803   6.826   8.101
15541SOL    HW151470   3.802   6.779   8.189
15541SOL    HW251471   3.885   6.798   8.050
15542SOL     OW51472   4.396   6.977   9.072
15542SOL    HW151473   4.318   6.927   9.110
15542SOL    HW251474   4.393   7.072   9.103
15543SOL     OW51475   5.548   5.778   8.675
15543SOL    HW151476   5.544   5.688   8.719
15543SOL    HW251477   5.551   5.767   8.576
15544SOL     OW51478   4.152   6.010   7.968
15544SOL    HW151479   4.182   5.938   7.906
15544SOL    HW251480   4.113   5.970   8.051
15545SOL     OW51481   5.429   7.073   8.552
15545SOL    HW151482   5.336   7.048   8.525
15545SOL    HW251483   5.455   7.023   8.634
15546SOL     OW51484   4.041   6.133   8.728
15546SOL    HW151485   4.079   6.074   8.800
15546SOL    HW251486   4.081   6.107   8.640
15547SOL     OW51487   4.536   7.172   8.135
15547SOL    HW151488   4.568   7.182   8.041
15547SOL    HW251489   4.457   7.110   8.137
15548SOL     OW51490   5.148   5.800   8.560
15548SOL    HW151491   5.200   5.735   8.615
15548SOL    HW251492   5.099   5.863   8.621
15549SOL     OW51493   4.725   5.620   8.602
15549SOL    HW151494   4.662   5.548   8.571
15549SOL    HW251495   4.818   5.584   8.602
15550SOL     OW51496   4.494   6.916   7.749
15550SOL    HW151497   4.448   6.829   7.766
15550SOL    HW251498   4.585   6.913   7.790
15551SOL     OW51499   4.342   7.153   8.732
15551SOL    HW151500   4.337   7.235   8.789
15551SOL    HW251501   4.431   7.150   8.687
15552SOL     OW51502   5.076   5.638   7.616
15552SOL    HW151503   5.111   5.597   7.532
15552SOL    HW251504   4.986   5.600   7.636
15553SOL     OW51505   5.024   6.039   8.139
15553SOL    HW151506   4.965   6.119   8.143
15553SOL    HW251507   5.039   6.004   8.232
15554SOL     OW51508   5.317   5.807   8.330
15554SOL    HW151509   5.233   5.806   8.384
15554SOL    HW251510   5.319   5.890   8.274
15555SOL     OW51511   3.763   6.663   7.748
15555SOL    HW151512   3.862   6.652   7.739
15555SOL    HW251513   3.723   6.577   7.780
15556SOL     OW51514   4.599   7.232   7.785
15556SOL    HW151515   4.522   7.197   7.731
15556SOL    HW251516   4.567   7.303   7.847
15557SOL     OW51517   3.954   6.214   9.423
15557SOL    HW151518   3.861   6.212   9.460
15557SOL    HW251519   3.955   6.175   9.331
15558SOL     OW51520   5.479   6.193   9.541
15558SOL    HW151521   5.467   6.180   9.442
15558SOL    HW251522   5.449   6.112   9.590
15559SOL     OW51523   4.330   6.550   9.433
15559SOL    HW151524   4.337   6.634   9.379
15559SOL    HW251525   4.376   6.563   9.521
15560SOL     OW51526   3.846   6.229   9.873
15560SOL    HW151527   3.801   6.141   9.890
15560SOL    HW251528   3.845   6.283   9.957
15561SOL     OW51529   5.566   7.353   9.669
15561SOL    HW151530   5.620   7.324   9.749
15561SOL    HW251531   5.596   7.443   9.640
15562SOL     OW51532   3.751   7.182   9.427
15562SOL    HW151533   3.732   7.086   9.448
15562SOL    HW251534   3.718   7.240   9.502
15563SOL     OW51535   5.413   6.508   9.922
15563SOL    HW151536   5.508   6.479   9.930
15563SOL    HW251537   5.405   6.573   9.847
15564SOL     OW51538   5.365   6.694   9.742
15564SOL    HW151539   5.451   6.696   9.690
15564SOL    HW251540   5.379   6.741   9.830
15565SOL     OW51541   4.337   6.951  10.036
15565SOL    HW151542   4.288   6.864  10.045
15565SOL    HW251543   4.314   6.994   9.949
15566SOL     OW51544   4.533   5.590   9.812
15566SOL    HW151545   4.573   5.681   9.803
15566SOL    HW251546   4.433   5.598   9.818
15567SOL     OW51547   5.249   6.585   9.500
15567SOL    HW151548   5.186   6.509   9.513
15567SOL    HW251549   5.297   6.603   9.586
15568SOL     OW51550   4.322   6.315   9.580
15568SOL    HW151551   4.346   6.384   9.512
15568SOL    HW251552   4.244   6.348   9.634
15569SOL     OW51553   5.300   7.248   9.617
15569SOL    HW151554   5.389   7.294   9.620
15569SOL    HW251555   5.279   7.224   9.522
15570SOL     OW51556   4.765   6.287   9.739
15570SOL    HW151557   4.791   6.283   9.835
15570SOL    HW251558   4.680   6.236   9.725
15571SOL     OW51559   3.800   6.397  10.099
15571SOL    HW151560   3.899   6.385  10.108
15571SOL    HW251561   3.776   6.492  10.120
15572SOL     OW51562   4.589   5.934   9.505
15572SOL    HW151563   4.648   5.997   9.456
15572SOL    HW251564   4.608   5.840   9.476
15573SOL     OW51565   5.086   6.730   9.855
15573SOL    HW151566   5.169   6.701   9.807
15573SOL    HW251567   5.037   6.797   9.799
15574SOL     OW51568   4.732   7.042   9.787
15574SOL    HW151569   4.686   7.114   9.735
15574SOL    HW251570   4.728   7.062   9.885
15575SOL     OW51571   4.075   7.387  10.163
15575SOL    HW151572   4.125   7.301  10.169
15575SOL    HW251573   4.140   7.464  10.160
15576SOL     OW51574   4.045   6.529   9.552
15576SOL    HW151575   4.127   6.568   9.510
15576SOL    HW251576   4.018   6.447   9.503
15577SOL     OW51577   4.835   7.362   9.547
15577SOL    HW151578   4.775   7.300   9.597
15577SOL    HW251579   4.866   7.318   9.462
15578SOL     OW51580   5.356   6.963   9.391
15578SOL    HW151581   5.324   7.057   9.381
15578SOL    HW251582   5.280   6.900   9.379
15579SOL     OW51583   4.188   7.329   9.633
15579SOL    HW151584   4.221   7.368   9.719
15579SOL    HW251585   4.264   7.322   9.568
15580SOL     OW51586   5.124   5.693   9.736
15580SOL    HW151587   5.100   5.656   9.646
15580SOL    HW251588   5.223   5.709   9.740
15581SOL     OW51589   4.106   6.286   9.790
15581SOL    HW151590   4.151   6.196   9.787
15581SOL    HW251591   4.012   6.275   9.823
15582SOL     OW51592   4.338   5.708   9.427
15582SOL    HW151593   4.436   5.686   9.434
15582SOL    HW251594   4.307   5.691   9.334
15583SOL     OW51595   4.263   5.650   9.822
15583SOL    HW151596   4.182   5.651   9.880
15583SOL    HW251597   4.266   5.733   9.767
15584SOL     OW51598   5.158   6.774   9.351
15584SOL    HW151599   5.190   6.698   9.408
15584SOL    HW251600   5.066   6.801   9.381
15585SOL     OW51601   4.021   5.621   9.481
15585SOL    HW151602   4.070   5.705   9.460
15585SOL    HW251603   4.083   5.556   9.526
15586SOL     OW51604   4.659   5.822   9.790
15586SOL    HW151605   4.611   5.863   9.712
15586SOL    HW251606   4.758   5.820   9.771
15587SOL     OW51607   4.183   6.738  10.051
15587SOL    HW151608   4.112   6.711  10.116
15587SOL    HW251609   4.157   6.710   9.958
15588SOL     OW51610   4.995   7.383   9.901
15588SOL    HW151611   5.039   7.447   9.837
15588SOL    HW251612   4.945   7.435   9.971
15589SOL     OW51613   4.756   6.135   9.326
15589SOL    HW151614   4.715   6.217   9.287
15589SOL    HW251615   4.820   6.161   9.399
15590SOL     OW51616   4.590   6.040   9.952
15590SOL    HW151617   4.558   6.112   9.890
15590SOL    HW251618   4.614   5.959   9.899
15591SOL     OW51619   5.581   6.419   9.687
15591SOL    HW151620   5.623   6.355   9.751
15591SOL    HW251621   5.543   6.368   9.609
15592SOL     OW51622   4.212   6.971   9.484
15592SOL    HW151623   4.125   6.956   9.531
15592SOL    HW251624   4.195   6.997   9.389
15593SOL     OW51625   5.114   6.161   9.388
15593SOL    HW151626   5.060   6.140   9.469
15593SOL    HW251627   5.205   6.120   9.397
15594SOL     OW51628   4.251   5.842   9.638
15594SOL    HW151629   4.278   5.783   9.563
15594SOL    HW251630   4.251   5.937   9.607
15595SOL     OW51631   4.429   6.636   9.678
15595SOL    HW151632   4.415   6.643   9.777
15595SOL    HW251633   4.513   6.585   9.660
15596SOL     OW51634   4.091   6.686   9.811
15596SOL    HW151635   4.084   6.769   9.755
15596SOL    HW251636   4.095   6.606   9.751
15597SOL     OW51637   4.976   6.934   9.698
15597SOL    HW151638   5.026   7.011   9.738
15597SOL    HW251639   4.881   6.936   9.730
15598SOL     OW51640   4.933   6.111   9.585
15598SOL    HW151641   4.946   6.027   9.639
15598SOL    HW251642   4.904   6.185   9.645
15599SOL     OW51643   4.031   5.649   9.928
15599SOL    HW151644   4.020   5.743   9.961
15599SOL    HW251645   4.026   5.586  10.005
15600SOL     OW51646   5.346   5.953   9.684
15600SOL    HW151647   5.348   5.877   9.748
15600SOL    HW251648   5.298   6.030   9.724
15601SOL     OW51649   5.264   5.860   9.435
15601SOL    HW151650   5.203   5.785   9.458
15601SOL    HW251651   5.286   5.912   9.518
15602SOL     OW51652   5.027   6.424   9.352
15602SOL    HW151653   5.061   6.331   9.367
15602SOL    HW251654   5.045   6.451   9.257
15603SOL     OW51655   3.732   6.912   9.510
15603SOL    HW151656   3.639   6.933   9.479
15603SOL    HW251657   3.742   6.813   9.523
15604SOL     OW51658   4.197   6.086   9.501
15604SOL    HW151659   4.258   6.166   9.505
15604SOL    HW251660   4.102   6.117   9.508
15605SOL     OW51661   5.026   6.441   9.619
15605SOL    HW151662   4.940   6.410   9.661
15605SOL    HW251663   5.022   6.427   9.520
15606SOL     OW51664   5.450   5.721   9.833
15606SOL    HW151665   5.523   5.704   9.766
15606SOL    HW251666   5.419   5.634   9.871
15607SOL     OW51667   5.112   7.159   9.787
15607SOL    HW151668   5.179   7.171   9.713
15607SOL    HW251669   5.072   7.248   9.810
15608SOL     OW51670   4.396   7.202   9.464
15608SOL    HW151671   4.405   7.212   9.365
15608SOL    HW251672   4.356   7.113   9.485
15609SOL     OW51673   4.918   7.198   9.341
15609SOL    HW151674   4.924   7.105   9.378
15609SOL    HW251675   4.859   7.198   9.261
15610SOL     OW51676   4.640   6.496   9.601
15610SOL    HW151677   4.703   6.534   9.533
15610SOL    HW251678   4.680   6.413   9.640
15611SOL     OW51679   5.228   7.193   9.354
15611SOL    HW151680   5.136   7.230   9.361
15611SOL    HW251681   5.266   7.213   9.264
15612SOL     OW51682   3.799   5.931   9.343
15612SOL    HW151683   3.707   5.903   9.314
15612SOL    HW251684   3.830   6.008   9.287
15613SOL     OW51685   3.796   5.752   9.628
15613SOL    HW151686   3.779   5.835   9.574
15613SOL    HW251687   3.886   5.715   9.606
15614SOL     OW51688   4.907   6.921   9.429
15614SOL    HW151689   4.808   6.910   9.431
15614SOL    HW251690   4.941   6.936   9.522
15615SOL     OW51691   4.949   5.911   9.759
15615SOL    HW151692   5.014   5.837   9.748
15615SOL    HW251693   4.969   5.961   9.843
15616SOL     OW51694   4.318   6.331   9.962
15616SOL    HW151695   4.368   6.416   9.943
15616SOL    HW251696   4.230   6.333   9.914
15617SOL     OW51697   4.583   6.960   9.326
15617SOL    HW151698   4.537   6.975   9.414
15617SOL    HW251699   4.627   7.045   9.296
15618SOL     OW51700   4.807   6.570   9.397
15618SOL    HW151701   4.784   6.623   9.315
15618SOL    HW251702   4.888   6.514   9.378
15619SOL     OW51703   4.152   6.010   9.830
15619SOL    HW151704   4.182   5.938   9.768
15619SOL    HW251705   4.113   5.970   9.913
15620SOL     OW51706   4.494   6.916   9.611
15620SOL    HW151707   4.448   6.829   9.628
15620SOL    HW251708   4.585   6.913   9.652
15621SOL     OW51709   5.076   5.638   9.478
15621SOL    HW151710   5.111   5.597   9.394
15621SOL    HW251711   4.986   5.600   9.498
15622SOL     OW51712   3.763   6.663   9.610
15622SOL    HW151713   3.862   6.652   9.601
15622SOL    HW251714   3.723   6.577   9.642
15623SOL     OW51715   4.599   7.232   9.647
15623SOL    HW151716   4.522   7.197   9.593
15623SOL    HW251717   4.567   7.303   9.709
15624SOL     OW51718   3.949   7.723   0.996
15624SOL    HW151719   3.984   7.706   1.088
15624SOL    HW251720   3.861   7.678   0.984
15625SOL     OW51721   3.743   7.816   0.647
15625SOL    HW151722   3.661   7.859   0.686
15625SOL    HW251723   3.715   7.743   0.584
15626SOL     OW51724   4.293   8.723   1.165
15626SOL    HW151725   4.200   8.716   1.128
15626SOL    HW251726   4.304   8.812   1.209
15627SOL     OW51727   5.279   8.959   0.703
15627SOL    HW151728   5.222   8.943   0.784
15627SOL    HW251729   5.220   8.969   0.623
15628SOL     OW51730   4.859   8.151   0.717
15628SOL    HW151731   4.916   8.229   0.692
15628SOL    HW251732   4.799   8.177   0.793
15629SOL     OW51733   5.479   8.055   0.231
15629SOL    HW151734   5.467   8.042   0.132
15629SOL    HW251735   5.449   7.974   0.280
15630SOL     OW51736   4.492   8.592   1.023
15630SOL    HW151737   4.414   8.609   1.083
15630SOL    HW251738   4.526   8.679   0.987
15631SOL     OW51739   4.574   8.246   1.823
15631SOL    HW151740   4.570   8.322   1.888
15631SOL    HW251741   4.596   8.282   1.732
15632SOL     OW51742   4.409   8.460   0.665
15632SOL    HW151743   4.478   8.444   0.735
15632SOL    HW251744   4.336   8.517   0.703
15633SOL     OW51745   4.410   8.609   1.803
15633SOL    HW151746   4.470   8.688   1.817
15633SOL    HW251747   4.324   8.640   1.762
15634SOL     OW51748   4.059   8.883   1.061
15634SOL    HW151749   3.981   8.852   1.008
15634SOL    HW251750   4.117   8.941   1.004
15635SOL     OW51751   5.184   8.953   1.339
15635SOL    HW151752   5.208   9.047   1.365
15635SOL    HW251753   5.168   8.899   1.421
15636SOL     OW51754   4.162   7.840   1.499
15636SOL    HW151755   4.244   7.784   1.508
15636SOL    HW251756   4.081   7.782   1.503
15637SOL     OW51757   5.327   7.895   0.737
15637SOL    HW151758   5.253   7.941   0.687
15637SOL    HW251759   5.378   7.963   0.790
15638SOL     OW51760   3.955   9.161   0.483
15638SOL    HW151761   3.989   9.238   0.537
15638SOL    HW251762   3.999   9.161   0.393
15639SOL     OW51763   4.851   8.789   1.690
15639SOL    HW151764   4.898   8.789   1.778
15639SOL    HW251765   4.803   8.702   1.679
15640SOL     OW51766   3.954   8.882   0.538
15640SOL    HW151767   3.928   8.978   0.538
15640SOL    HW251768   3.883   8.828   0.583
15641SOL     OW51769   3.964   8.539   0.886
15641SOL    HW151770   3.978   8.455   0.938
15641SOL    HW251771   3.909   8.603   0.941
15642SOL     OW51772   4.344   9.234   1.439
15642SOL    HW151773   4.252   9.217   1.474
15642SOL    HW251774   4.372   9.326   1.465
15643SOL     OW51775   4.330   8.412   0.123
15643SOL    HW151776   4.337   8.496   0.069
15643SOL    HW251777   4.376   8.425   0.211
15644SOL     OW51778   5.318   7.562   1.480
15644SOL    HW151779   5.300   7.629   1.408
15644SOL    HW251780   5.315   7.608   1.569
15645SOL     OW51781   3.846   8.091   0.563
15645SOL    HW151782   3.801   8.003   0.580
15645SOL    HW251783   3.845   8.145   0.647
15646SOL     OW51784   5.566   9.215   0.359
15646SOL    HW151785   5.620   9.186   0.439
15646SOL    HW251786   5.596   9.305   0.330
15647SOL     OW51787   3.751   9.044   0.117
15647SOL    HW151788   3.732   8.948   0.138
15647SOL    HW251789   3.718   9.102   0.192
15648SOL     OW51790   5.413   8.370   0.612
15648SOL    HW151791   5.508   8.341   0.620
15648SOL    HW251792   5.405   8.435   0.537
15649SOL     OW51793   5.365   8.556   0.432
15649SOL    HW151794   5.451   8.558   0.380
15649SOL    HW251795   5.379   8.603   0.520
15650SOL     OW51796   3.837   8.185   1.597
15650SOL    HW151797   3.925   8.172   1.642
15650SOL    HW251798   3.824   8.282   1.575
15651SOL     OW51799   4.337   8.813   0.726
15651SOL    HW151800   4.288   8.726   0.735
15651SOL    HW251801   4.314   8.856   0.639
15652SOL     OW51802   5.017   8.676   1.423
15652SOL    HW151803   5.054   8.603   1.365
15652SOL    HW251804   5.069   8.681   1.508
15653SOL     OW51805   4.533   7.452   0.502
15653SOL    HW151806   4.573   7.543   0.493
15653SOL    HW251807   4.433   7.460   0.508
15654SOL     OW51808   3.921   8.424   1.264
15654SOL    HW151809   4.010   8.379   1.250
15654SOL    HW251810   3.848   8.359   1.245
15655SOL     OW51811   5.249   8.447   0.190
15655SOL    HW151812   5.186   8.371   0.203
15655SOL    HW251813   5.297   8.465   0.276
15656SOL     OW51814   4.911   9.240   1.616
15656SOL    HW151815   4.935   9.300   1.540
15656SOL    HW251816   4.918   9.145   1.586
15657SOL     OW51817   4.041   7.699   1.801
15657SOL    HW151818   4.112   7.770   1.807
15657SOL    HW251819   3.953   7.738   1.829
15658SOL     OW51820   5.190   8.865   0.953
15658SOL    HW151821   5.131   8.871   1.033
15658SOL    HW251822   5.175   8.777   0.907
15659SOL     OW51823   4.322   8.177   0.270
15659SOL    HW151824   4.346   8.246   0.202
15659SOL    HW251825   4.244   8.210   0.324
15660SOL     OW51826   5.005   7.793   0.944
15660SOL    HW151827   4.919   7.743   0.931
15660SOL    HW251828   5.067   7.739   1.000
15661SOL     OW51829   5.300   9.110   0.307
15661SOL    HW151830   5.389   9.156   0.310
15661SOL    HW251831   5.279   9.086   0.212
15662SOL     OW51832   4.531   8.053   1.465
15662SOL    HW151833   4.484   8.050   1.554
15662SOL    HW251834   4.480   7.998   1.399
15663SOL     OW51835   5.118   7.917   1.674
15663SOL    HW151836   5.098   7.960   1.762
15663SOL    HW251837   5.196   7.855   1.683
15664SOL     OW51838   4.715   7.858   1.242
15664SOL    HW151839   4.638   7.892   1.296
15664SOL    HW251840   4.681   7.807   1.163
15665SOL     OW51841   4.765   8.149   0.429
15665SOL    HW151842   4.791   8.145   0.525
15665SOL    HW251843   4.680   8.098   0.415
15666SOL     OW51844   3.800   8.259   0.789
15666SOL    HW151845   3.899   8.247   0.798
15666SOL    HW251846   3.776   8.354   0.810
15667SOL     OW51847   5.443   8.033   1.831
15667SOL    HW151848   5.417   8.122   1.795
15667SOL    HW251849   5.441   7.965   1.758
15668SOL     OW51850   5.086   8.592   0.545
15668SOL    HW151851   5.169   8.563   0.497
15668SOL    HW251852   5.037   8.659   0.489
15669SOL     OW51853   4.274   7.644   0.885
15669SOL    HW151854   4.269   7.639   0.985
15669SOL    HW251855   4.276   7.740   0.856
15670SOL     OW51856   4.732   8.904   0.477
15670SOL    HW151857   4.686   8.976   0.425
15670SOL    HW251858   4.728   8.924   0.575
15671SOL     OW51859   4.075   9.249   0.853
15671SOL    HW151860   4.125   9.163   0.859
15671SOL    HW251861   4.140   9.326   0.850
15672SOL     OW51862   5.519   8.514   0.873
15672SOL    HW151863   5.457   8.499   0.797
15672SOL    HW251864   5.467   8.525   0.958
15673SOL     OW51865   4.951   8.998   1.506
15673SOL    HW151866   4.957   8.921   1.570
15673SOL    HW251867   4.899   8.972   1.426
15674SOL     OW51868   4.045   8.391   0.242
15674SOL    HW151869   4.127   8.430   0.200
15674SOL    HW251870   4.018   8.309   0.193
15675SOL     OW51871   5.182   8.183   0.728
15675SOL    HW151872   5.177   8.118   0.803
15675SOL    HW251873   5.262   8.242   0.741
15676SOL     OW51874   4.835   9.224   0.237
15676SOL    HW151875   4.775   9.162   0.287
15676SOL    HW251876   4.866   9.180   0.152
15677SOL     OW51877   3.926   7.733   1.498
15677SOL    HW151878   3.846   7.793   1.485
15677SOL    HW251879   3.916   7.684   1.584
15678SOL     OW51880   5.356   8.825   0.081
15678SOL    HW151881   5.324   8.919   0.071
15678SOL    HW251882   5.280   8.762   0.069
15679SOL     OW51883   4.188   9.191   0.323
15679SOL    HW151884   4.221   9.230   0.409
15679SOL    HW251885   4.264   9.184   0.258
15680SOL     OW51886   3.973   9.233   1.241
15680SOL    HW151887   4.030   9.168   1.291
15680SOL    HW251888   3.957   9.200   1.148
15681SOL     OW51889   4.664   9.146   0.904
15681SOL    HW151890   4.744   9.089   0.925
15681SOL    HW251891   4.615   9.106   0.827
15682SOL     OW51892   4.106   8.148   0.480
15682SOL    HW151893   4.151   8.058   0.477
15682SOL    HW251894   4.012   8.137   0.513
15683SOL     OW51895   5.271   7.670   1.729
15683SOL    HW151896   5.266   7.707   1.821
15683SOL    HW251897   5.199   7.601   1.717
15684SOL     OW51898   4.338   7.570   0.117
15684SOL    HW151899   4.436   7.548   0.124
15684SOL    HW251900   4.307   7.553   0.024
15685SOL     OW51901   4.505   7.712   1.749
15685SOL    HW151902   4.572   7.651   1.792
15685SOL    HW251903   4.432   7.731   1.814
15686SOL     OW51904   4.612   8.962   1.195
15686SOL    HW151905   4.589   8.937   1.101
15686SOL    HW251906   4.673   8.893   1.234
15687SOL     OW51907   4.527   8.850   0.924
15687SOL    HW151908   4.617   8.864   0.882
15687SOL    HW251909   4.456   8.852   0.853
15688SOL     OW51910   4.646   7.951   0.899
15688SOL    HW151911   4.621   7.942   0.803
15688SOL    HW251912   4.694   7.869   0.930
15689SOL     OW51913   4.263   7.512   0.512
15689SOL    HW151914   4.182   7.513   0.570
15689SOL    HW251915   4.266   7.595   0.457
15690SOL     OW51916   5.158   8.636   0.041
15690SOL    HW151917   5.190   8.560   0.098
15690SOL    HW251918   5.066   8.663   0.071
15691SOL     OW51919   4.659   7.684   0.480
15691SOL    HW151920   4.611   7.725   0.402
15691SOL    HW251921   4.758   7.682   0.461
15692SOL     OW51922   4.951   9.018   0.793
15692SOL    HW151923   4.972   9.092   0.728
15692SOL    HW251924   5.019   9.018   0.866
15693SOL     OW51925   4.183   8.600   0.741
15693SOL    HW151926   4.112   8.573   0.806
15693SOL    HW251927   4.157   8.572   0.648
15694SOL     OW51928   4.995   9.245   0.591
15694SOL    HW151929   5.039   9.309   0.527
15694SOL    HW251930   4.945   9.297   0.661
15695SOL     OW51931   4.756   7.997   0.016
15695SOL    HW151932   4.715   8.079  -0.023
15695SOL    HW251933   4.820   8.023   0.089
15696SOL     OW51934   3.802   8.004   1.386
15696SOL    HW151935   3.894   8.003   1.345
15696SOL    HW251936   3.796   8.078   1.453
15697SOL     OW51937   4.285   7.670   1.147
15697SOL    HW151938   4.323   7.586   1.184
15697SOL    HW251939   4.197   7.689   1.191
15698SOL     OW51940   4.590   7.902   0.642
15698SOL    HW151941   4.558   7.974   0.580
15698SOL    HW251942   4.614   7.821   0.589
15699SOL     OW51943   4.741   7.487   0.753
15699SOL    HW151944   4.669   7.492   0.684
15699SOL    HW251945   4.717   7.418   0.822
15700SOL     OW51946   5.153   8.621   0.867
15700SOL    HW151947   5.098   8.537   0.860
15700SOL    HW251948   5.179   8.650   0.775
15701SOL     OW51949   5.190   8.038   0.992
15701SOL    HW151950   5.160   7.943   0.999
15701SOL    HW251951   5.263   8.054   1.058
15702SOL     OW51952   5.581   8.281   0.377
15702SOL    HW151953   5.623   8.217   0.441
15702SOL    HW251954   5.543   8.230   0.299
15703SOL     OW51955   4.212   8.833   0.174
15703SOL    HW151956   4.125   8.818   0.221
15703SOL    HW251957   4.195   8.859   0.079
15704SOL     OW51958   5.388   8.728   0.657
15704SOL    HW151959   5.487   8.736   0.671
15704SOL    HW251960   5.343   8.812   0.688
15705SOL     OW51961   5.114   8.023   0.078
15705SOL    HW151962   5.060   8.002   0.159
15705SOL    HW251963   5.205   7.982   0.087
15706SOL     OW51964   4.251   7.704   0.328
15706SOL    HW151965   4.278   7.645   0.253
15706SOL    HW251966   4.251   7.799   0.297
15707SOL     OW51967   4.788   8.795   1.340
15707SOL    HW151968   4.708   8.772   1.395
15707SOL    HW251969   4.871   8.769   1.389
15708SOL     OW51970   4.835   8.643   1.100
15708SOL    HW151971   4.795   8.687   1.181
15708SOL    HW251972   4.794   8.680   1.017
15709SOL     OW51973   5.362   8.547   1.079
15709SOL    HW151974   5.367   8.628   1.138
15709SOL    HW251975   5.276   8.549   1.028
15710SOL     OW51976   4.639   7.537   1.402
15710SOL    HW151977   4.664   7.517   1.307
15710SOL    HW251978   4.711   7.593   1.444
15711SOL     OW51979   4.704   8.564   1.719
15711SOL    HW151980   4.605   8.570   1.729
15711SOL    HW251981   4.727   8.484   1.663
15712SOL     OW51982   4.429   8.498   0.368
15712SOL    HW151983   4.415   8.505   0.467
15712SOL    HW251984   4.513   8.447   0.350
15713SOL     OW51985   4.134   8.261   1.251
15713SOL    HW151986   4.220   8.273   1.301
15713SOL    HW251987   4.092   8.174   1.278
15714SOL     OW51988   4.998   7.834   1.262
15714SOL    HW151989   5.019   7.908   1.326
15714SOL    HW251990   4.909   7.851   1.219
15715SOL     OW51991   3.788   9.012   1.331
15715SOL    HW151992   3.742   9.094   1.297
15715SOL    HW251993   3.886   9.031   1.340
15716SOL     OW51994   4.091   8.548   0.501
15716SOL    HW151995   4.084   8.631   0.445
15716SOL    HW251996   4.095   8.468   0.441
15717SOL     OW51997   4.290   7.985   0.865
15717SOL    HW151998   4.302   8.051   0.791
15717SOL    HW251999   4.336   8.019   0.948
15718SOL     OW52000   4.976   8.796   0.388
15718SOL    HW152001   5.026   8.873   0.428
15718SOL    HW252002   4.881   8.798   0.420
15719SOL     OW52003   4.996   8.893   1.142
15719SOL    HW152004   5.043   8.906   1.229
15719SOL    HW252005   4.930   8.819   1.151
15720SOL     OW52006   5.306   8.087   0.472
15720SOL    HW152007   5.275   8.148   0.545
15720SOL    HW252008   5.356   8.139   0.403
15721SOL     OW52009   4.078   8.958   1.329
15721SOL    HW152010   4.057   8.914   1.242
15721SOL    HW252011   4.175   8.984   1.332
15722SOL     OW52012   4.126   8.199   1.598
15722SOL    HW152013   4.194   8.254   1.551
15722SOL    HW252014   4.166   8.111   1.625
15723SOL     OW52015   5.311   8.227   1.670
15723SOL    HW152016   5.219   8.265   1.665
15723SOL    HW252017   5.371   8.274   1.605
15724SOL     OW52018   4.737   7.553   1.770
15724SOL    HW152019   4.743   7.638   1.718
15724SOL    HW252020   4.769   7.477   1.713
15725SOL     OW52021   4.228   7.498   1.740
15725SOL    HW152022   4.186   7.441   1.670
15725SOL    HW252023   4.162   7.567   1.772
15726SOL     OW52024   4.297   8.318   1.029
15726SOL    HW152025   4.341   8.407   1.020
15726SOL    HW252026   4.234   8.318   1.106
15727SOL     OW52027   5.084   8.310   1.045
15727SOL    HW152028   5.009   8.310   0.979
15727SOL    HW252029   5.121   8.218   1.054
15728SOL     OW52030   4.031   7.661   1.231
15728SOL    HW152031   4.008   7.698   1.321
15728SOL    HW252032   4.001   7.566   1.225
15729SOL     OW52033   3.761   8.758   1.282
15729SOL    HW152034   3.814   8.709   1.350
15729SOL    HW252035   3.783   8.856   1.287
15730SOL     OW52036   4.456   8.082   1.064
15730SOL    HW152037   4.515   8.056   0.988
15730SOL    HW252038   4.428   8.178   1.053
15731SOL     OW52039   5.452   8.383   1.854
15731SOL    HW152040   5.406   8.376   1.765
15731SOL    HW252041   5.390   8.427   1.920
15732SOL     OW52042   4.031   7.511   0.618
15732SOL    HW152043   4.020   7.605   0.651
15732SOL    HW252044   4.026   7.448   0.695
15733SOL     OW52045   4.704   9.021   1.700
15733SOL    HW152046   4.684   9.065   1.612
15733SOL    HW252047   4.743   8.930   1.684
15734SOL     OW52048   4.074   8.346   1.804
15734SOL    HW152049   4.150   8.390   1.852
15734SOL    HW252050   4.109   8.299   1.722
15735SOL     OW52051   5.027   8.286   0.042
15735SOL    HW152052   5.061   8.193   0.057
15735SOL    HW252053   5.045   8.313  -0.053
15736SOL     OW52054   4.043   8.258   0.949
15736SOL    HW152055   4.136   8.294   0.954
15736SOL    HW252056   4.037   8.173   1.001
15737SOL     OW52057   4.063   7.957   1.006
15737SOL    HW152058   4.011   7.874   0.989
15737SOL    HW252059   4.140   7.962   0.942
15738SOL     OW52060   4.862   7.828   1.678
15738SOL    HW152061   4.817   7.891   1.742
15738SOL    HW252062   4.955   7.859   1.661
15739SOL     OW52063   4.884   7.655   1.477
15739SOL    HW152064   4.884   7.719   1.554
15739SOL    HW252065   4.912   7.703   1.394
15740SOL     OW52066   3.732   8.774   0.200
15740SOL    HW152067   3.639   8.795   0.169
15740SOL    HW252068   3.742   8.675   0.213
15741SOL     OW52069   3.812   9.249   0.927
15741SOL    HW152070   3.770   9.163   0.900
15741SOL    HW252071   3.906   9.252   0.893
15742SOL     OW52072   4.228   9.016   0.910
15742SOL    HW152073   4.294   9.090   0.919
15742SOL    HW252074   4.272   8.937   0.868
15743SOL     OW52075   3.764   7.992   1.114
15743SOL    HW152076   3.849   7.959   1.073
15743SOL    HW252077   3.777   8.007   1.212
15744SOL     OW52078   3.913   7.968   1.722
15744SOL    HW152079   3.972   7.928   1.652
15744SOL    HW252080   3.855   8.039   1.681
15745SOL     OW52081   4.539   8.020   0.325
15745SOL    HW152082   4.546   7.931   0.279
15745SOL    HW252083   4.445   8.054   0.317
15746SOL     OW52084   5.381   8.052   1.206
15746SOL    HW152085   5.343   7.983   1.268
15746SOL    HW252086   5.463   8.016   1.162
15747SOL     OW52087   4.395   7.912   1.269
15747SOL    HW152088   4.361   7.823   1.239
15747SOL    HW252089   4.421   7.966   1.189
15748SOL     OW52090   4.654   9.126   1.465
15748SOL    HW152091   4.630   9.108   1.370
15748SOL    HW252092   4.684   9.220   1.475
15749SOL     OW52093   3.883   8.585   1.466
15749SOL    HW152094   3.905   8.524   1.542
15749SOL    HW252095   3.893   8.536   1.380
15750SOL     OW52096   5.071   8.507   1.234
15750SOL    HW152097   5.095   8.444   1.160
15750SOL    HW252098   4.981   8.547   1.216
15751SOL     OW52099   5.026   8.303   0.309
15751SOL    HW152100   4.940   8.272   0.351
15751SOL    HW252101   5.022   8.289   0.210
15752SOL     OW52102   5.483   9.195   1.154
15752SOL    HW152103   5.544   9.225   1.081
15752SOL    HW252104   5.445   9.106   1.132
15753SOL     OW52105   4.976   9.179   1.128
15753SOL    HW152106   5.060   9.184   1.074
15753SOL    HW252107   4.953   9.083   1.146
15754SOL     OW52108   3.807   8.706   1.022
15754SOL    HW152109   3.802   8.705   1.122
15754SOL    HW252110   3.724   8.665   0.984
15755SOL     OW52111   4.412   9.110   1.716
15755SOL    HW152112   4.356   9.191   1.725
15755SOL    HW252113   4.464   9.114   1.630
15756SOL     OW52114   5.112   9.021   0.477
15756SOL    HW152115   5.179   9.033   0.403
15756SOL    HW252116   5.072   9.110   0.500
15757SOL     OW52117   3.854   9.242   1.851
15757SOL    HW152118   3.813   9.168   1.904
15757SOL    HW252119   3.918   9.293   1.909
15758SOL     OW52120   5.004   8.375   0.672
15758SOL    HW152121   5.064   8.294   0.674
15758SOL    HW252122   5.044   8.444   0.612
15759SOL     OW52123   4.554   8.721   1.422
15759SOL    HW152124   4.549   8.754   1.517
15759SOL    HW252125   4.468   8.740   1.376
15760SOL     OW52126   4.396   9.064   0.154
15760SOL    HW152127   4.405   9.074   0.055
15760SOL    HW252128   4.356   8.975   0.175
15761SOL     OW52129   5.374   9.168   1.394
15761SOL    HW152130   5.427   9.178   1.310
15761SOL    HW252131   5.347   9.258   1.428
15762SOL     OW52132   5.565   7.623   0.963
15762SOL    HW152133   5.604   7.538   0.927
15762SOL    HW252134   5.467   7.625   0.944
15763SOL     OW52135   3.987   7.774   0.720
15763SOL    HW152136   3.908   7.825   0.686
15763SOL    HW252137   3.978   7.759   0.818
15764SOL     OW52138   4.918   9.060   0.031
15764SOL    HW152139   4.924   8.967   0.068
15764SOL    HW252140   4.859   9.060  -0.049
15765SOL     OW52141   4.546   8.450   1.372
15765SOL    HW152142   4.586   8.449   1.280
15765SOL    HW252143   4.556   8.542   1.412
15766SOL     OW52144   4.640   8.358   0.291
15766SOL    HW152145   4.703   8.396   0.223
15766SOL    HW252146   4.680   8.275   0.330
15767SOL     OW52147   5.228   9.055   0.044
15767SOL    HW152148   5.136   9.092   0.051
15767SOL    HW252149   5.266   9.075  -0.046
15768SOL     OW52150   5.338   8.740   1.289
15768SOL    HW152151   5.398   8.743   1.369
15768SOL    HW252152   5.263   8.804   1.302
15769SOL     OW52153   4.763   8.546   0.696
15769SOL    HW152154   4.693   8.499   0.750
15769SOL    HW252155   4.822   8.478   0.653
15770SOL     OW52156   4.738   7.684   0.971
15770SOL    HW152157   4.730   7.648   0.878
15770SOL    HW252158   4.736   7.608   1.036
15771SOL     OW52159   4.314   8.935   0.491
15771SOL    HW152160   4.356   8.877   0.421
15771SOL    HW252161   4.270   9.014   0.447
15772SOL     OW52162   5.433   7.833   1.381
15772SOL    HW152163   5.506   7.902   1.385
15772SOL    HW252164   5.461   7.758   1.322
15773SOL     OW52165   3.979   8.796   0.290
15773SOL    HW152166   3.883   8.797   0.263
15773SOL    HW252167   3.991   8.849   0.374
15774SOL     OW52168   3.829   8.461   1.726
15774SOL    HW152169   3.752   8.428   1.780
15774SOL    HW252170   3.914   8.431   1.768
15775SOL     OW52171   4.396   7.651   1.489
15775SOL    HW152172   4.486   7.635   1.449
15775SOL    HW252173   4.404   7.656   1.588
15776SOL     OW52174   3.799   7.793   0.033
15776SOL    HW152175   3.707   7.765   0.004
15776SOL    HW252176   3.830   7.870  -0.023
15777SOL     OW52177   3.796   7.614   0.318
15777SOL    HW152178   3.779   7.697   0.264
15777SOL    HW252179   3.886   7.577   0.296
15778SOL     OW52180   4.907   8.783   0.119
15778SOL    HW152181   4.808   8.772   0.121
15778SOL    HW252182   4.941   8.798   0.212
15779SOL     OW52183   4.337   8.290   1.431
15779SOL    HW152184   4.393   8.371   1.414
15779SOL    HW252185   4.396   8.210   1.434
15780SOL     OW52186   5.217   9.215   0.959
15780SOL    HW152187   5.250   9.279   0.890
15780SOL    HW252188   5.283   9.209   1.034
15781SOL     OW52189   4.440   8.013   1.708
15781SOL    HW152190   4.459   8.078   1.782
15781SOL    HW252191   4.500   7.933   1.717
15782SOL     OW52192   5.174   8.668   1.633
15782SOL    HW152193   5.165   8.658   1.732
15782SOL    HW252194   5.270   8.661   1.607
15783SOL     OW52195   5.398   8.331   1.254
15783SOL    HW152196   5.371   8.242   1.217
15783SOL    HW252197   5.399   8.399   1.181
15784SOL     OW52198   4.949   7.773   0.449
15784SOL    HW152199   5.014   7.699   0.438
15784SOL    HW252200   4.969   7.823   0.533
15785SOL     OW52201   4.318   8.193   0.652
15785SOL    HW152202   4.368   8.278   0.633
15785SOL    HW252203   4.230   8.195   0.604
15786SOL     OW52204   5.501   7.790   1.642
15786SOL    HW152205   5.484   7.821   1.548
15786SOL    HW252206   5.417   7.753   1.680
15787SOL     OW52207   5.454   8.382   1.517
15787SOL    HW152208   5.492   8.473   1.532
15787SOL    HW252209   5.446   8.365   1.418
15788SOL     OW52210   4.583   8.822   0.016
15788SOL    HW152211   4.537   8.837   0.104
15788SOL    HW252212   4.627   8.907  -0.014
15789SOL     OW52213   4.385   9.238   0.953
15789SOL    HW152214   4.339   9.326   0.940
15789SOL    HW252215   4.484   9.250   0.946
15790SOL     OW52216   4.583   8.404   0.861
15790SOL    HW152217   4.637   8.335   0.909
15790SOL    HW252218   4.551   8.473   0.927
15791SOL     OW52219   4.807   8.432   0.087
15791SOL    HW152220   4.784   8.485   0.005
15791SOL    HW252221   4.888   8.376   0.068
15792SOL     OW52222   5.585   9.017   0.851
15792SOL    HW152223   5.514   9.005   0.781
15792SOL    HW252224   5.586   8.938   0.911
15793SOL     OW52225   3.945   8.762   1.844
15793SOL    HW152226   3.880   8.689   1.823
15793SOL    HW252227   3.949   8.776   1.942
15794SOL     OW52228   3.803   8.688   0.653
15794SOL    HW152229   3.802   8.641   0.741
15794SOL    HW252230   3.885   8.660   0.602
15795SOL     OW52231   5.548   7.640   1.227
15795SOL    HW152232   5.544   7.550   1.271
15795SOL    HW252233   5.551   7.629   1.128
15796SOL     OW52234   4.152   7.872   0.520
15796SOL    HW152235   4.182   7.800   0.458
15796SOL    HW252236   4.113   7.832   0.603
15797SOL     OW52237   5.429   8.935   1.104
15797SOL    HW152238   5.336   8.910   1.077
15797SOL    HW252239   5.455   8.885   1.186
15798SOL     OW52240   4.041   7.995   1.280
15798SOL    HW152241   4.079   7.936   1.352
15798SOL    HW252242   4.081   7.969   1.192
15799SOL     OW52243   4.536   9.034   0.687
15799SOL    HW152244   4.568   9.044   0.593
15799SOL    HW252245   4.457   8.972   0.689
15800SOL     OW52246   5.148   7.662   1.112
15800SOL    HW152247   5.200   7.597   1.167
15800SOL    HW252248   5.099   7.725   1.173
15801SOL     OW52249   4.725   7.482   1.154
15801SOL    HW152250   4.662   7.410   1.123
15801SOL    HW252251   4.818   7.446   1.154
15802SOL     OW52252   4.494   8.778   0.301
15802SOL    HW152253   4.448   8.691   0.318
15802SOL    HW252254   4.585   8.775   0.342
15803SOL     OW52255   4.342   9.015   1.284
15803SOL    HW152256   4.337   9.097   1.341
15803SOL    HW252257   4.431   9.012   1.239
15804SOL     OW52258   5.076   7.500   0.168
15804SOL    HW152259   5.111   7.459   0.084
15804SOL    HW252260   4.986   7.462   0.188
15805SOL     OW52261   5.024   7.901   0.691
15805SOL    HW152262   4.965   7.981   0.695
15805SOL    HW252263   5.039   7.866   0.784
15806SOL     OW52264   5.317   7.669   0.882
15806SOL    HW152265   5.233   7.668   0.936
15806SOL    HW252266   5.319   7.752   0.826
15807SOL     OW52267   3.763   8.525   0.300
15807SOL    HW152268   3.862   8.514   0.291
15807SOL    HW252269   3.723   8.439   0.332
15808SOL     OW52270   4.599   9.094   0.337
15808SOL    HW152271   4.522   9.059   0.283
15808SOL    HW252272   4.567   9.165   0.399
15809SOL     OW52273   3.954   8.076   1.975
15809SOL    HW152274   3.861   8.074   2.012
15809SOL    HW252275   3.955   8.037   1.883
15810SOL     OW52276   3.949   7.723   2.858
15810SOL    HW152277   3.984   7.706   2.950
15810SOL    HW252278   3.861   7.678   2.846
15811SOL     OW52279   3.743   7.816   2.509
15811SOL    HW152280   3.661   7.859   2.548
15811SOL    HW252281   3.715   7.743   2.446
15812SOL     OW52282   4.293   8.723   3.027
15812SOL    HW152283   4.200   8.716   2.990
15812SOL    HW252284   4.304   8.812   3.071
15813SOL     OW52285   5.279   8.959   2.565
15813SOL    HW152286   5.222   8.943   2.646
15813SOL    HW252287   5.220   8.969   2.485
15814SOL     OW52288   4.859   8.151   2.579
15814SOL    HW152289   4.916   8.229   2.554
15814SOL    HW252290   4.799   8.177   2.655
15815SOL     OW52291   5.479   8.055   2.093
15815SOL    HW152292   5.467   8.042   1.994
15815SOL    HW252293   5.449   7.974   2.142
15816SOL     OW52294   4.492   8.592   2.885
15816SOL    HW152295   4.414   8.609   2.945
15816SOL    HW252296   4.526   8.679   2.849
15817SOL     OW52297   4.574   8.246   3.685
15817SOL    HW152298   4.570   8.322   3.750
15817SOL    HW252299   4.596   8.282   3.594
15818SOL     OW52300   4.409   8.460   2.527
15818SOL    HW152301   4.478   8.444   2.597
15818SOL    HW252302   4.336   8.517   2.565
15819SOL     OW52303   4.410   8.609   3.665
15819SOL    HW152304   4.470   8.688   3.679
15819SOL    HW252305   4.324   8.640   3.624
15820SOL     OW52306   4.059   8.883   2.923
15820SOL    HW152307   3.981   8.852   2.870
15820SOL    HW252308   4.117   8.941   2.866
15821SOL     OW52309   5.184   8.953   3.201
15821SOL    HW152310   5.208   9.047   3.227
15821SOL    HW252311   5.168   8.899   3.283
15822SOL     OW52312   4.162   7.840   3.361
15822SOL    HW152313   4.244   7.784   3.370
15822SOL    HW252314   4.081   7.782   3.365
15823SOL     OW52315   5.327   7.895   2.599
15823SOL    HW152316   5.253   7.941   2.549
15823SOL    HW252317   5.378   7.963   2.652
15824SOL     OW52318   3.955   9.161   2.345
15824SOL    HW152319   3.989   9.238   2.399
15824SOL    HW252320   3.999   9.161   2.255
15825SOL     OW52321   4.851   8.789   3.552
15825SOL    HW152322   4.898   8.789   3.640
15825SOL    HW252323   4.803   8.702   3.541
15826SOL     OW52324   3.954   8.882   2.400
15826SOL    HW152325   3.928   8.978   2.400
15826SOL    HW252326   3.883   8.828   2.445
15827SOL     OW52327   3.964   8.539   2.748
15827SOL    HW152328   3.978   8.455   2.800
15827SOL    HW252329   3.909   8.603   2.803
15828SOL     OW52330   4.344   9.234   3.301
15828SOL    HW152331   4.252   9.217   3.336
15828SOL    HW252332   4.372   9.326   3.327
15829SOL     OW52333   4.330   8.412   1.985
15829SOL    HW152334   4.337   8.496   1.931
15829SOL    HW252335   4.376   8.425   2.073
15830SOL     OW52336   5.318   7.562   3.342
15830SOL    HW152337   5.300   7.629   3.270
15830SOL    HW252338   5.315   7.608   3.431
15831SOL     OW52339   3.846   8.091   2.425
15831SOL    HW152340   3.801   8.003   2.442
15831SOL    HW252341   3.845   8.145   2.509
15832SOL     OW52342   5.566   9.215   2.221
15832SOL    HW152343   5.620   9.186   2.301
15832SOL    HW252344   5.596   9.305   2.192
15833SOL     OW52345   3.751   9.044   1.979
15833SOL    HW152346   3.732   8.948   2.000
15833SOL    HW252347   3.718   9.102   2.054
15834SOL     OW52348   5.413   8.370   2.474
15834SOL    HW152349   5.508   8.341   2.482
15834SOL    HW252350   5.405   8.435   2.399
15835SOL     OW52351   5.365   8.556   2.294
15835SOL    HW152352   5.451   8.558   2.242
15835SOL    HW252353   5.379   8.603   2.382
15836SOL     OW52354   3.837   8.185   3.459
15836SOL    HW152355   3.925   8.172   3.504
15836SOL    HW252356   3.824   8.282   3.437
15837SOL     OW52357   4.337   8.813   2.588
15837SOL    HW152358   4.288   8.726   2.597
15837SOL    HW252359   4.314   8.856   2.501
15838SOL     OW52360   5.017   8.676   3.285
15838SOL    HW152361   5.054   8.603   3.227
15838SOL    HW252362   5.069   8.681   3.370
15839SOL     OW52363   4.533   7.452   2.364
15839SOL    HW152364   4.573   7.543   2.355
15839SOL    HW252365   4.433   7.460   2.370
15840SOL     OW52366   3.921   8.424   3.126
15840SOL    HW152367   4.010   8.379   3.112
15840SOL    HW252368   3.848   8.359   3.107
15841SOL     OW52369   5.249   8.447   2.052
15841SOL    HW152370   5.186   8.371   2.065
15841SOL    HW252371   5.297   8.465   2.138
15842SOL     OW52372   4.911   9.240   3.478
15842SOL    HW152373   4.935   9.300   3.402
15842SOL    HW252374   4.918   9.145   3.448
15843SOL     OW52375   4.041   7.699   3.663
15843SOL    HW152376   4.112   7.770   3.669
15843SOL    HW252377   3.953   7.738   3.691
15844SOL     OW52378   5.190   8.865   2.815
15844SOL    HW152379   5.131   8.871   2.895
15844SOL    HW252380   5.175   8.777   2.769
15845SOL     OW52381   5.391   9.162   2.434
15845SOL    HW152382   5.350   9.139   2.346
15845SOL    HW252383   5.373   9.088   2.499
15846SOL     OW52384   4.322   8.177   2.132
15846SOL    HW152385   4.346   8.246   2.064
15846SOL    HW252386   4.244   8.210   2.186
15847SOL     OW52387   5.005   7.793   2.806
15847SOL    HW152388   4.919   7.743   2.793
15847SOL    HW252389   5.067   7.739   2.862
15848SOL     OW52390   5.300   9.110   2.169
15848SOL    HW152391   5.389   9.156   2.172
15848SOL    HW252392   5.279   9.086   2.074
15849SOL     OW52393   4.531   8.053   3.327
15849SOL    HW152394   4.484   8.050   3.416
15849SOL    HW252395   4.480   7.998   3.261
15850SOL     OW52396   5.118   7.917   3.536
15850SOL    HW152397   5.098   7.960   3.624
15850SOL    HW252398   5.196   7.855   3.545
15851SOL     OW52399   4.715   7.858   3.104
15851SOL    HW152400   4.638   7.892   3.158
15851SOL    HW252401   4.681   7.807   3.025
15852SOL     OW52402   4.765   8.149   2.291
15852SOL    HW152403   4.791   8.145   2.387
15852SOL    HW252404   4.680   8.098   2.277
15853SOL     OW52405   3.800   8.259   2.651
15853SOL    HW152406   3.899   8.247   2.660
15853SOL    HW252407   3.776   8.354   2.672
15854SOL     OW52408   4.589   7.796   2.057
15854SOL    HW152409   4.648   7.859   2.008
15854SOL    HW252410   4.608   7.702   2.028
15855SOL     OW52411   5.443   8.033   3.693
15855SOL    HW152412   5.417   8.122   3.657
15855SOL    HW252413   5.441   7.965   3.620
15856SOL     OW52414   5.086   8.592   2.407
15856SOL    HW152415   5.169   8.563   2.359
15856SOL    HW252416   5.037   8.659   2.351
15857SOL     OW52417   4.732   8.904   2.339
15857SOL    HW152418   4.686   8.976   2.287
15857SOL    HW252419   4.728   8.924   2.437
15858SOL     OW52420   4.075   9.249   2.715
15858SOL    HW152421   4.125   9.163   2.721
15858SOL    HW252422   4.140   9.326   2.712
15859SOL     OW52423   5.519   8.514   2.735
15859SOL    HW152424   5.457   8.499   2.659
15859SOL    HW252425   5.467   8.525   2.820
15860SOL     OW52426   4.951   8.998   3.368
15860SOL    HW152427   4.957   8.921   3.432
15860SOL    HW252428   4.899   8.972   3.288
15861SOL     OW52429   4.045   8.391   2.104
15861SOL    HW152430   4.127   8.430   2.062
15861SOL    HW252431   4.018   8.309   2.055
15862SOL     OW52432   5.182   8.183   2.590
15862SOL    HW152433   5.177   8.118   2.665
15862SOL    HW252434   5.262   8.242   2.603
15863SOL     OW52435   4.185   8.714   3.589
15863SOL    HW152436   4.135   8.715   3.503
15863SOL    HW252437   4.122   8.696   3.665
15864SOL     OW52438   4.835   9.224   2.099
15864SOL    HW152439   4.775   9.162   2.149
15864SOL    HW252440   4.866   9.180   2.014
15865SOL     OW52441   3.926   7.733   3.360
15865SOL    HW152442   3.846   7.793   3.347
15865SOL    HW252443   3.916   7.684   3.446
15866SOL     OW52444   5.356   8.825   1.943
15866SOL    HW152445   5.324   8.919   1.933
15866SOL    HW252446   5.280   8.762   1.931
15867SOL     OW52447   4.188   9.191   2.185
15867SOL    HW152448   4.221   9.230   2.271
15867SOL    HW252449   4.264   9.184   2.120
15868SOL     OW52450   5.124   7.555   2.288
15868SOL    HW152451   5.100   7.518   2.198
15868SOL    HW252452   5.223   7.571   2.292
15869SOL     OW52453   3.973   9.233   3.103
15869SOL    HW152454   4.030   9.168   3.153
15869SOL    HW252455   3.957   9.200   3.010
15870SOL     OW52456   4.664   9.146   2.766
15870SOL    HW152457   4.744   9.089   2.787
15870SOL    HW252458   4.615   9.106   2.689
15871SOL     OW52459   4.106   8.148   2.342
15871SOL    HW152460   4.151   8.058   2.339
15871SOL    HW252461   4.012   8.137   2.375
15872SOL     OW52462   5.271   7.670   3.591
15872SOL    HW152463   5.266   7.707   3.683
15872SOL    HW252464   5.199   7.601   3.579
15873SOL     OW52465   4.338   7.570   1.979
15873SOL    HW152466   4.436   7.548   1.986
15873SOL    HW252467   4.307   7.553   1.886
15874SOL     OW52468   4.505   7.712   3.611
15874SOL    HW152469   4.572   7.651   3.654
15874SOL    HW252470   4.432   7.731   3.676
15875SOL     OW52471   4.612   8.962   3.057
15875SOL    HW152472   4.589   8.937   2.963
15875SOL    HW252473   4.673   8.893   3.096
15876SOL     OW52474   4.527   8.850   2.786
15876SOL    HW152475   4.617   8.864   2.744
15876SOL    HW252476   4.456   8.852   2.715
15877SOL     OW52477   4.646   7.951   2.761
15877SOL    HW152478   4.621   7.942   2.665
15877SOL    HW252479   4.694   7.869   2.792
15878SOL     OW52480   4.263   7.512   2.374
15878SOL    HW152481   4.182   7.513   2.432
15878SOL    HW252482   4.266   7.595   2.319
15879SOL     OW52483   5.158   8.636   1.903
15879SOL    HW152484   5.190   8.560   1.960
15879SOL    HW252485   5.066   8.663   1.933
15880SOL     OW52486   4.021   7.483   2.033
15880SOL    HW152487   4.070   7.567   2.012
15880SOL    HW252488   4.083   7.418   2.078
15881SOL     OW52489   4.659   7.684   2.342
15881SOL    HW152490   4.611   7.725   2.264
15881SOL    HW252491   4.758   7.682   2.323
15882SOL     OW52492   4.951   9.018   2.655
15882SOL    HW152493   4.972   9.092   2.590
15882SOL    HW252494   5.019   9.018   2.728
15883SOL     OW52495   4.183   8.600   2.603
15883SOL    HW152496   4.112   8.573   2.668
15883SOL    HW252497   4.157   8.572   2.510
15884SOL     OW52498   4.995   9.245   2.453
15884SOL    HW152499   5.039   9.309   2.389
15884SOL    HW252500   4.945   9.297   2.523
15885SOL     OW52501   4.756   7.997   1.878
15885SOL    HW152502   4.715   8.079   1.839
15885SOL    HW252503   4.820   8.023   1.951
15886SOL     OW52504   3.802   8.004   3.248
15886SOL    HW152505   3.894   8.003   3.207
15886SOL    HW252506   3.796   8.078   3.315
15887SOL     OW52507   4.285   7.670   3.009
15887SOL    HW152508   4.323   7.586   3.046
15887SOL    HW252509   4.197   7.689   3.053
15888SOL     OW52510   4.590   7.902   2.504
15888SOL    HW152511   4.558   7.974   2.442
15888SOL    HW252512   4.614   7.821   2.451
15889SOL     OW52513   4.741   7.487   2.615
15889SOL    HW152514   4.669   7.492   2.546
15889SOL    HW252515   4.717   7.418   2.684
15890SOL     OW52516   5.153   8.621   2.729
15890SOL    HW152517   5.098   8.537   2.722
15890SOL    HW252518   5.179   8.650   2.637
15891SOL     OW52519   5.190   8.038   2.854
15891SOL    HW152520   5.160   7.943   2.861
15891SOL    HW252521   5.263   8.054   2.920
15892SOL     OW52522   5.581   8.281   2.239
15892SOL    HW152523   5.623   8.217   2.303
15892SOL    HW252524   5.543   8.230   2.161
15893SOL     OW52525   5.388   8.728   2.519
15893SOL    HW152526   5.487   8.736   2.533
15893SOL    HW252527   5.343   8.812   2.550
15894SOL     OW52528   5.114   8.023   1.940
15894SOL    HW152529   5.060   8.002   2.021
15894SOL    HW252530   5.205   7.982   1.949
15895SOL     OW52531   4.251   7.704   2.190
15895SOL    HW152532   4.278   7.645   2.115
15895SOL    HW252533   4.251   7.799   2.159
15896SOL     OW52534   5.478   8.671   3.450
15896SOL    HW152535   5.569   8.632   3.437
15896SOL    HW252536   5.486   8.767   3.474
15897SOL     OW52537   4.788   8.795   3.202
15897SOL    HW152538   4.708   8.772   3.257
15897SOL    HW252539   4.871   8.769   3.251
15898SOL     OW52540   5.316   9.077   3.487
15898SOL    HW152541   5.343   9.111   3.397
15898SOL    HW252542   5.395   9.039   3.533
15899SOL     OW52543   4.835   8.643   2.962
15899SOL    HW152544   4.795   8.687   3.043
15899SOL    HW252545   4.794   8.680   2.879
15900SOL     OW52546   5.362   8.547   2.941
15900SOL    HW152547   5.367   8.628   3.000
15900SOL    HW252548   5.276   8.549   2.890
15901SOL     OW52549   4.639   7.537   3.264
15901SOL    HW152550   4.664   7.517   3.169
15901SOL    HW252551   4.711   7.593   3.306
15902SOL     OW52552   4.704   8.564   3.581
15902SOL    HW152553   4.605   8.570   3.591
15902SOL    HW252554   4.727   8.484   3.525
15903SOL     OW52555   4.429   8.498   2.230
15903SOL    HW152556   4.415   8.505   2.329
15903SOL    HW252557   4.513   8.447   2.212
15904SOL     OW52558   4.134   8.261   3.113
15904SOL    HW152559   4.220   8.273   3.163
15904SOL    HW252560   4.092   8.174   3.140
15905SOL     OW52561   3.788   9.012   3.193
15905SOL    HW152562   3.742   9.094   3.159
15905SOL    HW252563   3.886   9.031   3.202
15906SOL     OW52564   4.091   8.548   2.363
15906SOL    HW152565   4.084   8.631   2.307
15906SOL    HW252566   4.095   8.468   2.303
15907SOL     OW52567   4.290   7.985   2.727
15907SOL    HW152568   4.302   8.051   2.653
15907SOL    HW252569   4.336   8.019   2.810
15908SOL     OW52570   4.976   8.796   2.250
15908SOL    HW152571   5.026   8.873   2.290
15908SOL    HW252572   4.881   8.798   2.282
15909SOL     OW52573   4.996   8.893   3.004
15909SOL    HW152574   5.043   8.906   3.091
15909SOL    HW252575   4.930   8.819   3.013
15910SOL     OW52576   5.306   8.087   2.334
15910SOL    HW152577   5.275   8.148   2.407
15910SOL    HW252578   5.356   8.139   2.265
15911SOL     OW52579   4.078   8.958   3.191
15911SOL    HW152580   4.057   8.914   3.104
15911SOL    HW252581   4.175   8.984   3.194
15912SOL     OW52582   4.126   8.199   3.460
15912SOL    HW152583   4.194   8.254   3.413
15912SOL    HW252584   4.166   8.111   3.487
15913SOL     OW52585   5.311   8.227   3.532
15913SOL    HW152586   5.219   8.265   3.527
15913SOL    HW252587   5.371   8.274   3.467
15914SOL     OW52588   4.737   7.553   3.632
15914SOL    HW152589   4.743   7.638   3.580
15914SOL    HW252590   4.769   7.477   3.575
15915SOL     OW52591   4.228   7.498   3.602
15915SOL    HW152592   4.186   7.441   3.532
15915SOL    HW252593   4.162   7.567   3.634
15916SOL     OW52594   4.297   8.318   2.891
15916SOL    HW152595   4.341   8.407   2.882
15916SOL    HW252596   4.234   8.318   2.968
15917SOL     OW52597   5.084   8.310   2.907
15917SOL    HW152598   5.009   8.310   2.841
15917SOL    HW252599   5.121   8.218   2.916
15918SOL     OW52600   4.933   7.973   2.137
15918SOL    HW152601   4.946   7.889   2.191
15918SOL    HW252602   4.904   8.047   2.197
15919SOL     OW52603   4.031   7.661   3.093
15919SOL    HW152604   4.008   7.698   3.183
15919SOL    HW252605   4.001   7.566   3.087
15920SOL     OW52606   3.761   8.758   3.144
15920SOL    HW152607   3.814   8.709   3.212
15920SOL    HW252608   3.783   8.856   3.149
15921SOL     OW52609   4.456   8.082   2.926
15921SOL    HW152610   4.515   8.056   2.850
15921SOL    HW252611   4.428   8.178   2.915
15922SOL     OW52612   5.452   8.383   3.716
15922SOL    HW152613   5.406   8.376   3.627
15922SOL    HW252614   5.390   8.427   3.782
15923SOL     OW52615   4.031   7.511   2.480
15923SOL    HW152616   4.020   7.605   2.513
15923SOL    HW252617   4.026   7.448   2.557
15924SOL     OW52618   5.346   7.815   2.236
15924SOL    HW152619   5.348   7.739   2.300
15924SOL    HW252620   5.298   7.892   2.276
15925SOL     OW52621   4.747   8.214   2.828
15925SOL    HW152622   4.762   8.235   2.924
15925SOL    HW252623   4.717   8.119   2.819
15926SOL     OW52624   4.704   9.021   3.562
15926SOL    HW152625   4.684   9.065   3.474
15926SOL    HW252626   4.743   8.930   3.546
15927SOL     OW52627   4.074   8.346   3.666
15927SOL    HW152628   4.150   8.390   3.714
15927SOL    HW252629   4.109   8.299   3.584
15928SOL     OW52630   5.264   7.722   1.987
15928SOL    HW152631   5.203   7.647   2.010
15928SOL    HW252632   5.286   7.774   2.070
15929SOL     OW52633   5.027   8.286   1.904
15929SOL    HW152634   5.061   8.193   1.919
15929SOL    HW252635   5.045   8.313   1.809
15930SOL     OW52636   4.043   8.258   2.811
15930SOL    HW152637   4.136   8.294   2.816
15930SOL    HW252638   4.037   8.173   2.863
15931SOL     OW52639   4.063   7.957   2.868
15931SOL    HW152640   4.011   7.874   2.851
15931SOL    HW252641   4.140   7.962   2.804
15932SOL     OW52642   4.862   7.828   3.540
15932SOL    HW152643   4.817   7.891   3.604
15932SOL    HW252644   4.955   7.859   3.523
15933SOL     OW52645   4.884   7.655   3.339
15933SOL    HW152646   4.884   7.719   3.416
15933SOL    HW252647   4.912   7.703   3.256
15934SOL     OW52648   3.732   8.774   2.062
15934SOL    HW152649   3.639   8.795   2.031
15934SOL    HW252650   3.742   8.675   2.075
15935SOL     OW52651   3.812   9.249   2.789
15935SOL    HW152652   3.770   9.163   2.762
15935SOL    HW252653   3.906   9.252   2.755
15936SOL     OW52654   4.228   9.016   2.772
15936SOL    HW152655   4.294   9.090   2.781
15936SOL    HW252656   4.272   8.937   2.730
15937SOL     OW52657   4.726   8.244   3.100
15937SOL    HW152658   4.767   8.212   3.186
15937SOL    HW252659   4.630   8.217   3.097
15938SOL     OW52660   3.764   7.992   2.976
15938SOL    HW152661   3.849   7.959   2.935
15938SOL    HW252662   3.777   8.007   3.074
15939SOL     OW52663   3.913   7.968   3.584
15939SOL    HW152664   3.972   7.928   3.514
15939SOL    HW252665   3.855   8.039   3.543
15940SOL     OW52666   4.539   8.020   2.187
15940SOL    HW152667   4.546   7.931   2.141
15940SOL    HW252668   4.445   8.054   2.179
15941SOL     OW52669   5.381   8.052   3.068
15941SOL    HW152670   5.343   7.983   3.130
15941SOL    HW252671   5.463   8.016   3.024
15942SOL     OW52672   3.976   9.012   3.606
15942SOL    HW152673   3.946   9.069   3.682
15942SOL    HW252674   3.969   8.915   3.632
15943SOL     OW52675   4.395   7.912   3.131
15943SOL    HW152676   4.361   7.823   3.101
15943SOL    HW252677   4.421   7.966   3.051
15944SOL     OW52678   4.654   9.126   3.327
15944SOL    HW152679   4.630   9.108   3.232
15944SOL    HW252680   4.684   9.220   3.337
15945SOL     OW52681   4.197   7.948   2.053
15945SOL    HW152682   4.258   8.028   2.057
15945SOL    HW252683   4.102   7.979   2.060
15946SOL     OW52684   3.883   8.585   3.328
15946SOL    HW152685   3.905   8.524   3.404
15946SOL    HW252686   3.893   8.536   3.242
15947SOL     OW52687   5.071   8.507   3.096
15947SOL    HW152688   5.095   8.444   3.022
15947SOL    HW252689   4.981   8.547   3.078
15948SOL     OW52690   5.026   8.303   2.171
15948SOL    HW152691   4.940   8.272   2.213
15948SOL    HW252692   5.022   8.289   2.072
15949SOL     OW52693   5.483   9.195   3.016
15949SOL    HW152694   5.544   9.225   2.943
15949SOL    HW252695   5.445   9.106   2.994
15950SOL     OW52696   4.976   9.179   2.990
15950SOL    HW152697   5.060   9.184   2.936
15950SOL    HW252698   4.953   9.083   3.008
15951SOL     OW52699   3.807   8.706   2.884
15951SOL    HW152700   3.802   8.705   2.984
15951SOL    HW252701   3.724   8.665   2.846
15952SOL     OW52702   4.412   9.110   3.578
15952SOL    HW152703   4.356   9.191   3.587
15952SOL    HW252704   4.464   9.114   3.492
15953SOL     OW52705   5.450   7.583   2.385
15953SOL    HW152706   5.523   7.566   2.318
15953SOL    HW252707   5.419   7.496   2.423
15954SOL     OW52708   5.112   9.021   2.339
15954SOL    HW152709   5.179   9.033   2.265
15954SOL    HW252710   5.072   9.110   2.362
15955SOL     OW52711   3.854   9.242   3.713
15955SOL    HW152712   3.813   9.168   3.766
15955SOL    HW252713   3.918   9.293   3.771
15956SOL     OW52714   5.004   8.375   2.534
15956SOL    HW152715   5.064   8.294   2.536
15956SOL    HW252716   5.044   8.444   2.474
15957SOL     OW52717   4.554   8.721   3.284
15957SOL    HW152718   4.549   8.754   3.379
15957SOL    HW252719   4.468   8.740   3.238
15958SOL     OW52720   5.374   9.168   3.256
15958SOL    HW152721   5.427   9.178   3.172
15958SOL    HW252722   5.347   9.258   3.290
15959SOL     OW52723   5.565   7.623   2.825
15959SOL    HW152724   5.604   7.538   2.789
15959SOL    HW252725   5.467   7.625   2.806
15960SOL     OW52726   3.987   7.774   2.582
15960SOL    HW152727   3.908   7.825   2.548
15960SOL    HW252728   3.978   7.759   2.680
15961SOL     OW52729   4.918   9.060   1.893
15961SOL    HW152730   4.924   8.967   1.930
15961SOL    HW252731   4.859   9.060   1.813
15962SOL     OW52732   4.546   8.450   3.234
15962SOL    HW152733   4.586   8.449   3.142
15962SOL    HW252734   4.556   8.542   3.274
15963SOL     OW52735   4.640   8.358   2.153
15963SOL    HW152736   4.703   8.396   2.085
15963SOL    HW252737   4.680   8.275   2.192
15964SOL     OW52738   5.228   9.055   1.906
15964SOL    HW152739   5.136   9.092   1.913
15964SOL    HW252740   5.266   9.075   1.816
15965SOL     OW52741   4.096   8.736   3.352
15965SOL    HW152742   4.083   8.829   3.318
15965SOL    HW252743   4.012   8.684   3.339
15966SOL     OW52744   5.338   8.740   3.151
15966SOL    HW152745   5.398   8.743   3.231
15966SOL    HW252746   5.263   8.804   3.164
15967SOL     OW52747   4.763   8.546   2.558
15967SOL    HW152748   4.693   8.499   2.612
15967SOL    HW252749   4.822   8.478   2.515
15968SOL     OW52750   4.738   7.684   2.833
15968SOL    HW152751   4.730   7.648   2.740
15968SOL    HW252752   4.736   7.608   2.898
15969SOL     OW52753   4.314   8.935   2.353
15969SOL    HW152754   4.356   8.877   2.283
15969SOL    HW252755   4.270   9.014   2.309
15970SOL     OW52756   5.433   7.833   3.243
15970SOL    HW152757   5.506   7.902   3.247
15970SOL    HW252758   5.461   7.758   3.184
15971SOL     OW52759   3.979   8.796   2.152
15971SOL    HW152760   3.883   8.797   2.125
15971SOL    HW252761   3.991   8.849   2.236
15972SOL     OW52762   3.829   8.461   3.588
15972SOL    HW152763   3.752   8.428   3.642
15972SOL    HW252764   3.914   8.431   3.630
15973SOL     OW52765   4.396   7.651   3.351
15973SOL    HW152766   4.486   7.635   3.311
15973SOL    HW252767   4.404   7.656   3.450
15974SOL     OW52768   3.799   7.793   1.895
15974SOL    HW152769   3.707   7.765   1.866
15974SOL    HW252770   3.830   7.870   1.839
15975SOL     OW52771   3.796   7.614   2.180
15975SOL    HW152772   3.779   7.697   2.126
15975SOL    HW252773   3.886   7.577   2.158
15976SOL     OW52774   4.907   8.783   1.981
15976SOL    HW152775   4.808   8.772   1.983
15976SOL    HW252776   4.941   8.798   2.074
15977SOL     OW52777   4.337   8.290   3.293
15977SOL    HW152778   4.393   8.371   3.276
15977SOL    HW252779   4.396   8.210   3.296
15978SOL     OW52780   5.217   9.215   2.821
15978SOL    HW152781   5.250   9.279   2.752
15978SOL    HW252782   5.283   9.209   2.896
15979SOL     OW52783   4.440   8.013   3.570
15979SOL    HW152784   4.459   8.078   3.644
15979SOL    HW252785   4.500   7.933   3.579
15980SOL     OW52786   5.174   8.668   3.495
15980SOL    HW152787   5.165   8.658   3.594
15980SOL    HW252788   5.270   8.661   3.469
15981SOL     OW52789   4.114   9.189   3.422
15981SOL    HW152790   4.023   9.230   3.420
15981SOL    HW252791   4.107   9.095   3.454
15982SOL     OW52792   5.398   8.331   3.116
15982SOL    HW152793   5.371   8.242   3.079
15982SOL    HW252794   5.399   8.399   3.043
15983SOL     OW52795   4.949   7.773   2.311
15983SOL    HW152796   5.014   7.699   2.300
15983SOL    HW252797   4.969   7.823   2.395
15984SOL     OW52798   4.318   8.193   2.514
15984SOL    HW152799   4.368   8.278   2.495
15984SOL    HW252800   4.230   8.195   2.466
15985SOL     OW52801   5.501   7.790   3.504
15985SOL    HW152802   5.484   7.821   3.410
15985SOL    HW252803   5.417   7.753   3.542
15986SOL     OW52804   5.454   8.382   3.379
15986SOL    HW152805   5.492   8.473   3.394
15986SOL    HW252806   5.446   8.365   3.280
15987SOL     OW52807   4.583   8.822   1.878
15987SOL    HW152808   4.537   8.837   1.966
15987SOL    HW252809   4.627   8.907   1.848
15988SOL     OW52810   4.385   9.238   2.815
15988SOL    HW152811   4.339   9.326   2.802
15988SOL    HW252812   4.484   9.250   2.808
15989SOL     OW52813   4.583   8.404   2.723
15989SOL    HW152814   4.637   8.335   2.771
15989SOL    HW252815   4.551   8.473   2.789
15990SOL     OW52816   4.807   8.432   1.949
15990SOL    HW152817   4.784   8.485   1.867
15990SOL    HW252818   4.888   8.376   1.930
15991SOL     OW52819   5.585   9.017   2.713
15991SOL    HW152820   5.514   9.005   2.643
15991SOL    HW252821   5.586   8.938   2.773
15992SOL     OW52822   3.945   8.762   3.706
15992SOL    HW152823   3.880   8.689   3.685
15992SOL    HW252824   3.949   8.776   3.804
15993SOL     OW52825   3.803   8.688   2.515
15993SOL    HW152826   3.802   8.641   2.603
15993SOL    HW252827   3.885   8.660   2.464
15994SOL     OW52828   4.396   8.839   3.486
15994SOL    HW152829   4.318   8.789   3.524
15994SOL    HW252830   4.393   8.934   3.517
15995SOL     OW52831   5.548   7.640   3.089
15995SOL    HW152832   5.544   7.550   3.133
15995SOL    HW252833   5.551   7.629   2.990
15996SOL     OW52834   4.152   7.872   2.382
15996SOL    HW152835   4.182   7.800   2.320
15996SOL    HW252836   4.113   7.832   2.465
15997SOL     OW52837   5.429   8.935   2.966
15997SOL    HW152838   5.336   8.910   2.939
15997SOL    HW252839   5.455   8.885   3.048
15998SOL     OW52840   4.041   7.995   3.142
15998SOL    HW152841   4.079   7.936   3.214
15998SOL    HW252842   4.081   7.969   3.054
15999SOL     OW52843   4.536   9.034   2.549
15999SOL    HW152844   4.568   9.044   2.455
15999SOL    HW252845   4.457   8.972   2.551
16000SOL     OW52846   5.148   7.662   2.974
16000SOL    HW152847   5.200   7.597   3.029
16000SOL    HW252848   5.099   7.725   3.035
16001SOL     OW52849   4.725   7.482   3.016
16001SOL    HW152850   4.662   7.410   2.985
16001SOL    HW252851   4.818   7.446   3.016
16002SOL     OW52852   4.494   8.778   2.163
16002SOL    HW152853   4.448   8.691   2.180
16002SOL    HW252854   4.585   8.775   2.204
16003SOL     OW52855   4.342   9.015   3.146
16003SOL    HW152856   4.337   9.097   3.203
16003SOL    HW252857   4.431   9.012   3.101
16004SOL     OW52858   5.076   7.500   2.030
16004SOL    HW152859   5.111   7.459   1.946
16004SOL    HW252860   4.986   7.462   2.050
16005SOL     OW52861   5.024   7.901   2.553
16005SOL    HW152862   4.965   7.981   2.557
16005SOL    HW252863   5.039   7.866   2.646
16006SOL     OW52864   5.317   7.669   2.744
16006SOL    HW152865   5.233   7.668   2.798
16006SOL    HW252866   5.319   7.752   2.688
16007SOL     OW52867   3.763   8.525   2.162
16007SOL    HW152868   3.862   8.514   2.153
16007SOL    HW252869   3.723   8.439   2.194
16008SOL     OW52870   4.599   9.094   2.199
16008SOL    HW152871   4.522   9.059   2.145
16008SOL    HW252872   4.567   9.165   2.261
16009SOL     OW52873   3.954   8.076   3.837
16009SOL    HW152874   3.861   8.074   3.874
16009SOL    HW252875   3.955   8.037   3.745
16010SOL     OW52876   3.949   7.723   4.720
16010SOL    HW152877   3.984   7.706   4.812
16010SOL    HW252878   3.861   7.678   4.708
16011SOL     OW52879   3.743   7.816   4.371
16011SOL    HW152880   3.661   7.859   4.410
16011SOL    HW252881   3.715   7.743   4.308
16012SOL     OW52882   4.293   8.723   4.889
16012SOL    HW152883   4.200   8.716   4.852
16012SOL    HW252884   4.304   8.812   4.933
16013SOL     OW52885   5.279   8.959   4.427
16013SOL    HW152886   5.222   8.943   4.508
16013SOL    HW252887   5.220   8.969   4.347
16014SOL     OW52888   4.859   8.151   4.441
16014SOL    HW152889   4.916   8.229   4.416
16014SOL    HW252890   4.799   8.177   4.517
16015SOL     OW52891   5.479   8.055   3.955
16015SOL    HW152892   5.467   8.042   3.856
16015SOL    HW252893   5.449   7.974   4.004
16016SOL     OW52894   4.492   8.592   4.747
16016SOL    HW152895   4.414   8.609   4.807
16016SOL    HW252896   4.526   8.679   4.711
16017SOL     OW52897   4.574   8.246   5.547
16017SOL    HW152898   4.570   8.322   5.612
16017SOL    HW252899   4.596   8.282   5.456
16018SOL     OW52900   4.409   8.460   4.389
16018SOL    HW152901   4.478   8.444   4.459
16018SOL    HW252902   4.336   8.517   4.427
16019SOL     OW52903   4.410   8.609   5.527
16019SOL    HW152904   4.470   8.688   5.541
16019SOL    HW252905   4.324   8.640   5.486
16020SOL     OW52906   4.059   8.883   4.785
16020SOL    HW152907   3.981   8.852   4.732
16020SOL    HW252908   4.117   8.941   4.728
16021SOL     OW52909   4.162   7.840   5.223
16021SOL    HW152910   4.244   7.784   5.232
16021SOL    HW252911   4.081   7.782   5.227
16022SOL     OW52912   5.327   7.895   4.461
16022SOL    HW152913   5.253   7.941   4.411
16022SOL    HW252914   5.378   7.963   4.514
16023SOL     OW52915   3.955   9.161   4.207
16023SOL    HW152916   3.989   9.238   4.261
16023SOL    HW252917   3.999   9.161   4.117
16024SOL     OW52918   4.851   8.789   5.414
16024SOL    HW152919   4.898   8.789   5.502
16024SOL    HW252920   4.803   8.702   5.403
16025SOL     OW52921   3.954   8.882   4.262
16025SOL    HW152922   3.928   8.978   4.262
16025SOL    HW252923   3.883   8.828   4.307
16026SOL     OW52924   3.964   8.539   4.610
16026SOL    HW152925   3.978   8.455   4.662
16026SOL    HW252926   3.909   8.603   4.665
16027SOL     OW52927   4.344   9.234   5.163
16027SOL    HW152928   4.252   9.217   5.198
16027SOL    HW252929   4.372   9.326   5.189
16028SOL     OW52930   4.330   8.412   3.847
16028SOL    HW152931   4.337   8.496   3.793
16028SOL    HW252932   4.376   8.425   3.935
16029SOL     OW52933   5.318   7.562   5.204
16029SOL    HW152934   5.300   7.629   5.132
16029SOL    HW252935   5.315   7.608   5.293
16030SOL     OW52936   3.846   8.091   4.287
16030SOL    HW152937   3.801   8.003   4.304
16030SOL    HW252938   3.845   8.145   4.371
16031SOL     OW52939   5.566   9.215   4.083
16031SOL    HW152940   5.620   9.186   4.163
16031SOL    HW252941   5.596   9.305   4.054
16032SOL     OW52942   3.751   9.044   3.841
16032SOL    HW152943   3.732   8.948   3.862
16032SOL    HW252944   3.718   9.102   3.916
16033SOL     OW52945   5.413   8.370   4.336
16033SOL    HW152946   5.508   8.341   4.344
16033SOL    HW252947   5.405   8.435   4.261
16034SOL     OW52948   5.365   8.556   4.156
16034SOL    HW152949   5.451   8.558   4.104
16034SOL    HW252950   5.379   8.603   4.244
16035SOL     OW52951   3.837   8.185   5.321
16035SOL    HW152952   3.925   8.172   5.366
16035SOL    HW252953   3.824   8.282   5.299
16036SOL     OW52954   4.337   8.813   4.450
16036SOL    HW152955   4.288   8.726   4.459
16036SOL    HW252956   4.314   8.856   4.363
16037SOL     OW52957   5.017   8.676   5.147
16037SOL    HW152958   5.054   8.603   5.089
16037SOL    HW252959   5.069   8.681   5.232
16038SOL     OW52960   4.533   7.452   4.226
16038SOL    HW152961   4.573   7.543   4.217
16038SOL    HW252962   4.433   7.460   4.232
16039SOL     OW52963   3.921   8.424   4.988
16039SOL    HW152964   4.010   8.379   4.974
16039SOL    HW252965   3.848   8.359   4.969
16040SOL     OW52966   5.249   8.447   3.914
16040SOL    HW152967   5.186   8.371   3.927
16040SOL    HW252968   5.297   8.465   4.000
16041SOL     OW52969   4.911   9.240   5.340
16041SOL    HW152970   4.935   9.300   5.264
16041SOL    HW252971   4.918   9.145   5.310
16042SOL     OW52972   4.041   7.699   5.525
16042SOL    HW152973   4.112   7.770   5.531
16042SOL    HW252974   3.953   7.738   5.553
16043SOL     OW52975   5.190   8.865   4.677
16043SOL    HW152976   5.131   8.871   4.757
16043SOL    HW252977   5.175   8.777   4.631
16044SOL     OW52978   5.391   9.162   4.296
16044SOL    HW152979   5.350   9.139   4.208
16044SOL    HW252980   5.373   9.088   4.361
16045SOL     OW52981   4.322   8.177   3.994
16045SOL    HW152982   4.346   8.246   3.926
16045SOL    HW252983   4.244   8.210   4.048
16046SOL     OW52984   5.005   7.793   4.668
16046SOL    HW152985   4.919   7.743   4.655
16046SOL    HW252986   5.067   7.739   4.724
16047SOL     OW52987   5.300   9.110   4.031
16047SOL    HW152988   5.389   9.156   4.034
16047SOL    HW252989   5.279   9.086   3.936
16048SOL     OW52990   4.531   8.053   5.189
16048SOL    HW152991   4.484   8.050   5.278
16048SOL    HW252992   4.480   7.998   5.123
16049SOL     OW52993   5.118   7.917   5.398
16049SOL    HW152994   5.098   7.960   5.486
16049SOL    HW252995   5.196   7.855   5.407
16050SOL     OW52996   4.697   8.338   5.296
16050SOL    HW152997   4.743   8.254   5.267
16050SOL    HW252998   4.641   8.372   5.221
16051SOL     OW52999   4.715   7.858   4.966
16051SOL    HW153000   4.638   7.892   5.020
16051SOL    HW253001   4.681   7.807   4.887
16052SOL     OW53002   4.765   8.149   4.153
16052SOL    HW153003   4.791   8.145   4.249
16052SOL    HW253004   4.680   8.098   4.139
16053SOL     OW53005   3.800   8.259   4.513
16053SOL    HW153006   3.899   8.247   4.522
16053SOL    HW253007   3.776   8.354   4.534
16054SOL     OW53008   4.589   7.796   3.919
16054SOL    HW153009   4.648   7.859   3.870
16054SOL    HW253010   4.608   7.702   3.890
16055SOL     OW53011   5.443   8.033   5.555
16055SOL    HW153012   5.417   8.122   5.519
16055SOL    HW253013   5.441   7.965   5.482
16056SOL     OW53014   5.086   8.592   4.269
16056SOL    HW153015   5.169   8.563   4.221
16056SOL    HW253016   5.037   8.659   4.213
16057SOL     OW53017   4.274   7.644   4.609
16057SOL    HW153018   4.269   7.639   4.709
16057SOL    HW253019   4.276   7.740   4.580
16058SOL     OW53020   4.732   8.904   4.201
16058SOL    HW153021   4.686   8.976   4.149
16058SOL    HW253022   4.728   8.924   4.299
16059SOL     OW53023   4.075   9.249   4.577
16059SOL    HW153024   4.125   9.163   4.583
16059SOL    HW253025   4.140   9.326   4.574
16060SOL     OW53026   5.519   8.514   4.597
16060SOL    HW153027   5.457   8.499   4.521
16060SOL    HW253028   5.467   8.525   4.682
16061SOL     OW53029   4.951   8.998   5.230
16061SOL    HW153030   4.957   8.921   5.294
16061SOL    HW253031   4.899   8.972   5.150
16062SOL     OW53032   4.045   8.391   3.966
16062SOL    HW153033   4.127   8.430   3.924
16062SOL    HW253034   4.018   8.309   3.917
16063SOL     OW53035   5.182   8.183   4.452
16063SOL    HW153036   5.177   8.118   4.527
16063SOL    HW253037   5.262   8.242   4.465
16064SOL     OW53038   4.185   8.714   5.451
16064SOL    HW153039   4.135   8.715   5.365
16064SOL    HW253040   4.122   8.696   5.527
16065SOL     OW53041   4.835   9.224   3.961
16065SOL    HW153042   4.775   9.162   4.011
16065SOL    HW253043   4.866   9.180   3.876
16066SOL     OW53044   3.926   7.733   5.222
16066SOL    HW153045   3.846   7.793   5.209
16066SOL    HW253046   3.916   7.684   5.308
16067SOL     OW53047   5.356   8.825   3.805
16067SOL    HW153048   5.324   8.919   3.795
16067SOL    HW253049   5.280   8.762   3.793
16068SOL     OW53050   4.188   9.191   4.047
16068SOL    HW153051   4.221   9.230   4.133
16068SOL    HW253052   4.264   9.184   3.982
16069SOL     OW53053   5.124   7.555   4.150
16069SOL    HW153054   5.100   7.518   4.060
16069SOL    HW253055   5.223   7.571   4.154
16070SOL     OW53056   3.973   9.233   4.965
16070SOL    HW153057   4.030   9.168   5.015
16070SOL    HW253058   3.957   9.200   4.872
16071SOL     OW53059   4.664   9.146   4.628
16071SOL    HW153060   4.744   9.089   4.649
16071SOL    HW253061   4.615   9.106   4.551
16072SOL     OW53062   5.271   7.670   5.453
16072SOL    HW153063   5.266   7.707   5.545
16072SOL    HW253064   5.199   7.601   5.441
16073SOL     OW53065   4.338   7.570   3.841
16073SOL    HW153066   4.436   7.548   3.848
16073SOL    HW253067   4.307   7.553   3.748
16074SOL     OW53068   4.505   7.712   5.473
16074SOL    HW153069   4.572   7.651   5.516
16074SOL    HW253070   4.432   7.731   5.538
16075SOL     OW53071   4.612   8.962   4.919
16075SOL    HW153072   4.589   8.937   4.825
16075SOL    HW253073   4.673   8.893   4.958
16076SOL     OW53074   5.075   8.038   5.157
16076SOL    HW153075   5.103   7.995   5.242
16076SOL    HW253076   5.100   8.134   5.158
16077SOL     OW53077   4.527   8.850   4.648
16077SOL    HW153078   4.617   8.864   4.606
16077SOL    HW253079   4.456   8.852   4.577
16078SOL     OW53080   4.646   7.951   4.623
16078SOL    HW153081   4.621   7.942   4.527
16078SOL    HW253082   4.694   7.869   4.654
16079SOL     OW53083   4.263   7.512   4.236
16079SOL    HW153084   4.182   7.513   4.294
16079SOL    HW253085   4.266   7.595   4.181
16080SOL     OW53086   5.158   8.636   3.765
16080SOL    HW153087   5.190   8.560   3.822
16080SOL    HW253088   5.066   8.663   3.795
16081SOL     OW53089   4.021   7.483   3.895
16081SOL    HW153090   4.070   7.567   3.874
16081SOL    HW253091   4.083   7.418   3.940
16082SOL     OW53092   4.659   7.684   4.204
16082SOL    HW153093   4.611   7.725   4.126
16082SOL    HW253094   4.758   7.682   4.185
16083SOL     OW53095   4.800   8.131   5.188
16083SOL    HW153096   4.720   8.070   5.191
16083SOL    HW253097   4.881   8.078   5.164
16084SOL     OW53098   4.951   9.018   4.517
16084SOL    HW153099   4.972   9.092   4.452
16084SOL    HW253100   5.019   9.018   4.590
16085SOL     OW53101   4.183   8.600   4.465
16085SOL    HW153102   4.112   8.573   4.530
16085SOL    HW253103   4.157   8.572   4.372
16086SOL     OW53104   4.995   9.245   4.315
16086SOL    HW153105   5.039   9.309   4.251
16086SOL    HW253106   4.945   9.297   4.385
16087SOL     OW53107   4.756   7.997   3.740
16087SOL    HW153108   4.715   8.079   3.701
16087SOL    HW253109   4.820   8.023   3.813
16088SOL     OW53110   3.802   8.004   5.110
16088SOL    HW153111   3.894   8.003   5.069
16088SOL    HW253112   3.796   8.078   5.177
16089SOL     OW53113   4.285   7.670   4.871
16089SOL    HW153114   4.323   7.586   4.908
16089SOL    HW253115   4.197   7.689   4.915
16090SOL     OW53116   4.590   7.902   4.366
16090SOL    HW153117   4.558   7.974   4.304
16090SOL    HW253118   4.614   7.821   4.313
16091SOL     OW53119   4.741   7.487   4.477
16091SOL    HW153120   4.669   7.492   4.408
16091SOL    HW253121   4.717   7.418   4.546
16092SOL     OW53122   5.153   8.621   4.591
16092SOL    HW153123   5.098   8.537   4.584
16092SOL    HW253124   5.179   8.650   4.499
16093SOL     OW53125   5.190   8.038   4.716
16093SOL    HW153126   5.160   7.943   4.723
16093SOL    HW253127   5.263   8.054   4.782
16094SOL     OW53128   5.581   8.281   4.101
16094SOL    HW153129   5.623   8.217   4.165
16094SOL    HW253130   5.543   8.230   4.023
16095SOL     OW53131   4.212   8.833   3.898
16095SOL    HW153132   4.125   8.818   3.945
16095SOL    HW253133   4.195   8.859   3.803
16096SOL     OW53134   5.388   8.728   4.381
16096SOL    HW153135   5.487   8.736   4.395
16096SOL    HW253136   5.343   8.812   4.412
16097SOL     OW53137   5.114   8.023   3.802
16097SOL    HW153138   5.060   8.002   3.883
16097SOL    HW253139   5.205   7.982   3.811
16098SOL     OW53140   4.251   7.704   4.052
16098SOL    HW153141   4.278   7.645   3.977
16098SOL    HW253142   4.251   7.799   4.021
16099SOL     OW53143   5.478   8.671   5.312
16099SOL    HW153144   5.569   8.632   5.299
16099SOL    HW253145   5.486   8.767   5.336
16100SOL     OW53146   4.788   8.795   5.064
16100SOL    HW153147   4.708   8.772   5.119
16100SOL    HW253148   4.871   8.769   5.113
16101SOL     OW53149   5.316   9.077   5.349
16101SOL    HW153150   5.343   9.111   5.259
16101SOL    HW253151   5.395   9.039   5.395
16102SOL     OW53152   4.835   8.643   4.824
16102SOL    HW153153   4.795   8.687   4.905
16102SOL    HW253154   4.794   8.680   4.741
16103SOL     OW53155   5.362   8.547   4.803
16103SOL    HW153156   5.367   8.628   4.862
16103SOL    HW253157   5.276   8.549   4.752
16104SOL     OW53158   4.639   7.537   5.126
16104SOL    HW153159   4.664   7.517   5.031
16104SOL    HW253160   4.711   7.593   5.168
16105SOL     OW53161   4.704   8.564   5.443
16105SOL    HW153162   4.605   8.570   5.453
16105SOL    HW253163   4.727   8.484   5.387
16106SOL     OW53164   4.429   8.498   4.092
16106SOL    HW153165   4.415   8.505   4.191
16106SOL    HW253166   4.513   8.447   4.074
16107SOL     OW53167   4.134   8.261   4.975
16107SOL    HW153168   4.220   8.273   5.025
16107SOL    HW253169   4.092   8.174   5.002
16108SOL     OW53170   4.998   7.834   4.986
16108SOL    HW153171   5.019   7.908   5.050
16108SOL    HW253172   4.909   7.851   4.943
16109SOL     OW53173   4.091   8.548   4.225
16109SOL    HW153174   4.084   8.631   4.169
16109SOL    HW253175   4.095   8.468   4.165
16110SOL     OW53176   4.290   7.985   4.589
16110SOL    HW153177   4.302   8.051   4.515
16110SOL    HW253178   4.336   8.019   4.672
16111SOL     OW53179   4.976   8.796   4.112
16111SOL    HW153180   5.026   8.873   4.152
16111SOL    HW253181   4.881   8.798   4.144
16112SOL     OW53182   5.306   8.087   4.196
16112SOL    HW153183   5.275   8.148   4.269
16112SOL    HW253184   5.356   8.139   4.127
16113SOL     OW53185   4.078   8.958   5.053
16113SOL    HW153186   4.057   8.914   4.966
16113SOL    HW253187   4.175   8.984   5.056
16114SOL     OW53188   4.126   8.199   5.322
16114SOL    HW153189   4.194   8.254   5.275
16114SOL    HW253190   4.166   8.111   5.349
16115SOL     OW53191   5.311   8.227   5.394
16115SOL    HW153192   5.219   8.265   5.389
16115SOL    HW253193   5.371   8.274   5.329
16116SOL     OW53194   4.737   7.553   5.494
16116SOL    HW153195   4.743   7.638   5.442
16116SOL    HW253196   4.769   7.477   5.437
16117SOL     OW53197   4.297   8.318   4.753
16117SOL    HW153198   4.341   8.407   4.744
16117SOL    HW253199   4.234   8.318   4.830
16118SOL     OW53200   5.084   8.310   4.769
16118SOL    HW153201   5.009   8.310   4.703
16118SOL    HW253202   5.121   8.218   4.778
16119SOL     OW53203   4.933   7.973   3.999
16119SOL    HW153204   4.946   7.889   4.053
16119SOL    HW253205   4.904   8.047   4.059
16120SOL     OW53206   4.031   7.661   4.955
16120SOL    HW153207   4.008   7.698   5.045
16120SOL    HW253208   4.001   7.566   4.949
16121SOL     OW53209   3.761   8.758   5.006
16121SOL    HW153210   3.814   8.709   5.074
16121SOL    HW253211   3.783   8.856   5.011
16122SOL     OW53212   4.456   8.082   4.788
16122SOL    HW153213   4.515   8.056   4.712
16122SOL    HW253214   4.428   8.178   4.777
16123SOL     OW53215   5.452   8.383   5.578
16123SOL    HW153216   5.406   8.376   5.489
16123SOL    HW253217   5.390   8.427   5.644
16124SOL     OW53218   4.031   7.511   4.342
16124SOL    HW153219   4.020   7.605   4.375
16124SOL    HW253220   4.026   7.448   4.419
16125SOL     OW53221   5.346   7.815   4.098
16125SOL    HW153222   5.348   7.739   4.162
16125SOL    HW253223   5.298   7.892   4.138
16126SOL     OW53224   4.747   8.214   4.690
16126SOL    HW153225   4.762   8.235   4.786
16126SOL    HW253226   4.717   8.119   4.681
16127SOL     OW53227   4.704   9.021   5.424
16127SOL    HW153228   4.684   9.065   5.336
16127SOL    HW253229   4.743   8.930   5.408
16128SOL     OW53230   5.583   8.966   5.329
16128SOL    HW153231   5.597   8.993   5.234
16128SOL    HW253232   5.666   8.988   5.382
16129SOL     OW53233   4.074   8.346   5.528
16129SOL    HW153234   4.150   8.390   5.576
16129SOL    HW253235   4.109   8.299   5.446
16130SOL     OW53236   5.264   7.722   3.849
16130SOL    HW153237   5.203   7.647   3.872
16130SOL    HW253238   5.286   7.774   3.932
16131SOL     OW53239   5.027   8.286   3.766
16131SOL    HW153240   5.061   8.193   3.781
16131SOL    HW253241   5.045   8.313   3.671
16132SOL     OW53242   4.792   8.781   4.573
16132SOL    HW153243   4.799   8.697   4.518
16132SOL    HW253244   4.854   8.850   4.537
16133SOL     OW53245   4.043   8.258   4.673
16133SOL    HW153246   4.136   8.294   4.678
16133SOL    HW253247   4.037   8.173   4.725
16134SOL     OW53248   4.063   7.957   4.730
16134SOL    HW153249   4.011   7.874   4.713
16134SOL    HW253250   4.140   7.962   4.666
16135SOL     OW53251   4.862   7.828   5.402
16135SOL    HW153252   4.817   7.891   5.466
16135SOL    HW253253   4.955   7.859   5.385
16136SOL     OW53254   4.884   7.655   5.201
16136SOL    HW153255   4.884   7.719   5.278
16136SOL    HW253256   4.912   7.703   5.118
16137SOL     OW53257   3.732   8.774   3.924
16137SOL    HW153258   3.639   8.795   3.893
16137SOL    HW253259   3.742   8.675   3.937
16138SOL     OW53260   3.812   9.249   4.651
16138SOL    HW153261   3.770   9.163   4.624
16138SOL    HW253262   3.906   9.252   4.617
16139SOL     OW53263   4.228   9.016   4.634
16139SOL    HW153264   4.294   9.090   4.643
16139SOL    HW253265   4.272   8.937   4.592
16140SOL     OW53266   4.726   8.244   4.962
16140SOL    HW153267   4.767   8.212   5.048
16140SOL    HW253268   4.630   8.217   4.959
16141SOL     OW53269   3.913   7.968   5.446
16141SOL    HW153270   3.972   7.928   5.376
16141SOL    HW253271   3.855   8.039   5.405
16142SOL     OW53272   5.093   8.398   5.384
16142SOL    HW153273   5.132   8.487   5.404
16142SOL    HW253274   5.103   8.378   5.287
16143SOL     OW53275   4.539   8.020   4.049
16143SOL    HW153276   4.546   7.931   4.003
16143SOL    HW253277   4.445   8.054   4.041
16144SOL     OW53278   5.381   8.052   4.930
16144SOL    HW153279   5.343   7.983   4.992
16144SOL    HW253280   5.463   8.016   4.886
16145SOL     OW53281   4.654   9.126   5.189
16145SOL    HW153282   4.630   9.108   5.094
16145SOL    HW253283   4.684   9.220   5.199
16146SOL     OW53284   4.197   7.948   3.915
16146SOL    HW153285   4.258   8.028   3.919
16146SOL    HW253286   4.102   7.979   3.922
16147SOL     OW53287   3.883   8.585   5.190
16147SOL    HW153288   3.905   8.524   5.266
16147SOL    HW253289   3.893   8.536   5.104
16148SOL     OW53290   5.071   8.507   4.958
16148SOL    HW153291   5.095   8.444   4.884
16148SOL    HW253292   4.981   8.547   4.940
16149SOL     OW53293   5.026   8.303   4.033
16149SOL    HW153294   4.940   8.272   4.075
16149SOL    HW253295   5.022   8.289   3.934
16150SOL     OW53296   3.807   8.706   4.746
16150SOL    HW153297   3.802   8.705   4.846
16150SOL    HW253298   3.724   8.665   4.708
16151SOL     OW53299   4.412   9.110   5.440
16151SOL    HW153300   4.356   9.191   5.449
16151SOL    HW253301   4.464   9.114   5.354
16152SOL     OW53302   5.450   7.583   4.247
16152SOL    HW153303   5.523   7.566   4.180
16152SOL    HW253304   5.419   7.496   4.285
16153SOL     OW53305   5.112   9.021   4.201
16153SOL    HW153306   5.179   9.033   4.127
16153SOL    HW253307   5.072   9.110   4.224
16154SOL     OW53308   5.004   8.375   4.396
16154SOL    HW153309   5.064   8.294   4.398
16154SOL    HW253310   5.044   8.444   4.336
16155SOL     OW53311   4.554   8.721   5.146
16155SOL    HW153312   4.549   8.754   5.241
16155SOL    HW253313   4.468   8.740   5.100
16156SOL     OW53314   4.396   9.064   3.878
16156SOL    HW153315   4.405   9.074   3.779
16156SOL    HW253316   4.356   8.975   3.899
16157SOL     OW53317   5.565   7.623   4.687
16157SOL    HW153318   5.604   7.538   4.651
16157SOL    HW253319   5.467   7.625   4.668
16158SOL     OW53320   3.987   7.774   4.444
16158SOL    HW153321   3.908   7.825   4.410
16158SOL    HW253322   3.978   7.759   4.542
16159SOL     OW53323   4.918   9.060   3.755
16159SOL    HW153324   4.924   8.967   3.792
16159SOL    HW253325   4.859   9.060   3.675
16160SOL     OW53326   4.546   8.450   5.096
16160SOL    HW153327   4.586   8.449   5.004
16160SOL    HW253328   4.556   8.542   5.136
16161SOL     OW53329   4.640   8.358   4.015
16161SOL    HW153330   4.703   8.396   3.947
16161SOL    HW253331   4.680   8.275   4.054
16162SOL     OW53332   5.228   9.055   3.768
16162SOL    HW153333   5.136   9.092   3.775
16162SOL    HW253334   5.266   9.075   3.678
16163SOL     OW53335   4.096   8.736   5.214
16163SOL    HW153336   4.083   8.829   5.180
16163SOL    HW253337   4.012   8.684   5.201
16164SOL     OW53338   4.763   8.546   4.420
16164SOL    HW153339   4.693   8.499   4.474
16164SOL    HW253340   4.822   8.478   4.377
16165SOL     OW53341   4.738   7.684   4.695
16165SOL    HW153342   4.730   7.648   4.602
16165SOL    HW253343   4.736   7.608   4.760
16166SOL     OW53344   4.314   8.935   4.215
16166SOL    HW153345   4.356   8.877   4.145
16166SOL    HW253346   4.270   9.014   4.171
16167SOL     OW53347   5.433   7.833   5.105
16167SOL    HW153348   5.506   7.902   5.109
16167SOL    HW253349   5.461   7.758   5.046
16168SOL     OW53350   3.979   8.796   4.014
16168SOL    HW153351   3.883   8.797   3.987
16168SOL    HW253352   3.991   8.849   4.098
16169SOL     OW53353   3.829   8.461   5.450
16169SOL    HW153354   3.752   8.428   5.504
16169SOL    HW253355   3.914   8.431   5.492
16170SOL     OW53356   4.396   7.651   5.213
16170SOL    HW153357   4.486   7.635   5.173
16170SOL    HW253358   4.404   7.656   5.312
16171SOL     OW53359   3.799   7.793   3.757
16171SOL    HW153360   3.707   7.765   3.728
16171SOL    HW253361   3.830   7.870   3.701
16172SOL     OW53362   5.164   8.304   5.122
16172SOL    HW153363   5.107   8.356   5.059
16172SOL    HW253364   5.260   8.316   5.098
16173SOL     OW53365   3.796   7.614   4.042
16173SOL    HW153366   3.779   7.697   3.988
16173SOL    HW253367   3.886   7.577   4.020
16174SOL     OW53368   4.907   8.783   3.843
16174SOL    HW153369   4.808   8.772   3.845
16174SOL    HW253370   4.941   8.798   3.936
16175SOL     OW53371   4.337   8.290   5.155
16175SOL    HW153372   4.393   8.371   5.138
16175SOL    HW253373   4.396   8.210   5.158
16176SOL     OW53374   4.440   8.013   5.432
16176SOL    HW153375   4.459   8.078   5.506
16176SOL    HW253376   4.500   7.933   5.441
16177SOL     OW53377   5.174   8.668   5.357
16177SOL    HW153378   5.165   8.658   5.456
16177SOL    HW253379   5.270   8.661   5.331
16178SOL     OW53380   5.398   8.331   4.978
16178SOL    HW153381   5.371   8.242   4.941
16178SOL    HW253382   5.399   8.399   4.905
16179SOL     OW53383   4.949   7.773   4.173
16179SOL    HW153384   5.014   7.699   4.162
16179SOL    HW253385   4.969   7.823   4.257
16180SOL     OW53386   4.318   8.193   4.376
16180SOL    HW153387   4.368   8.278   4.357
16180SOL    HW253388   4.230   8.195   4.328
16181SOL     OW53389   5.501   7.790   5.366
16181SOL    HW153390   5.484   7.821   5.272
16181SOL    HW253391   5.417   7.753   5.404
16182SOL     OW53392   5.454   8.382   5.241
16182SOL    HW153393   5.492   8.473   5.256
16182SOL    HW253394   5.446   8.365   5.142
16183SOL     OW53395   4.583   8.822   3.740
16183SOL    HW153396   4.537   8.837   3.828
16183SOL    HW253397   4.627   8.907   3.710
16184SOL     OW53398   4.385   9.238   4.677
16184SOL    HW153399   4.339   9.326   4.664
16184SOL    HW253400   4.484   9.250   4.670
16185SOL     OW53401   4.583   8.404   4.585
16185SOL    HW153402   4.637   8.335   4.633
16185SOL    HW253403   4.551   8.473   4.651
16186SOL     OW53404   4.807   8.432   3.811
16186SOL    HW153405   4.784   8.485   3.729
16186SOL    HW253406   4.888   8.376   3.792
16187SOL     OW53407   5.585   9.017   4.575
16187SOL    HW153408   5.514   9.005   4.505
16187SOL    HW253409   5.586   8.938   4.635
16188SOL     OW53410   3.945   8.762   5.568
16188SOL    HW153411   3.880   8.689   5.547
16188SOL    HW253412   3.949   8.776   5.666
16189SOL     OW53413   3.803   8.688   4.377
16189SOL    HW153414   3.802   8.641   4.465
16189SOL    HW253415   3.885   8.660   4.326
16190SOL     OW53416   4.396   8.839   5.348
16190SOL    HW153417   4.318   8.789   5.386
16190SOL    HW253418   4.393   8.934   5.379
16191SOL     OW53419   5.548   7.640   4.951
16191SOL    HW153420   5.544   7.550   4.995
16191SOL    HW253421   5.551   7.629   4.852
16192SOL     OW53422   4.152   7.872   4.244
16192SOL    HW153423   4.182   7.800   4.182
16192SOL    HW253424   4.113   7.832   4.327
16193SOL     OW53425   5.429   8.935   4.828
16193SOL    HW153426   5.336   8.910   4.801
16193SOL    HW253427   5.455   8.885   4.910
16194SOL     OW53428   4.041   7.995   5.004
16194SOL    HW153429   4.079   7.936   5.076
16194SOL    HW253430   4.081   7.969   4.916
16195SOL     OW53431   4.536   9.034   4.411
16195SOL    HW153432   4.568   9.044   4.317
16195SOL    HW253433   4.457   8.972   4.413
16196SOL     OW53434   5.148   7.662   4.836
16196SOL    HW153435   5.200   7.597   4.891
16196SOL    HW253436   5.099   7.725   4.897
16197SOL     OW53437   4.725   7.482   4.878
16197SOL    HW153438   4.662   7.410   4.847
16197SOL    HW253439   4.818   7.446   4.878
16198SOL     OW53440   4.494   8.778   4.025
16198SOL    HW153441   4.448   8.691   4.042
16198SOL    HW253442   4.585   8.775   4.066
16199SOL     OW53443   4.342   9.015   5.008
16199SOL    HW153444   4.337   9.097   5.065
16199SOL    HW253445   4.431   9.012   4.963
16200SOL     OW53446   5.076   7.500   3.892
16200SOL    HW153447   5.111   7.459   3.808
16200SOL    HW253448   4.986   7.462   3.912
16201SOL     OW53449   5.024   7.901   4.415
16201SOL    HW153450   4.965   7.981   4.419
16201SOL    HW253451   5.039   7.866   4.508
16202SOL     OW53452   5.317   7.669   4.606
16202SOL    HW153453   5.233   7.668   4.660
16202SOL    HW253454   5.319   7.752   4.550
16203SOL     OW53455   3.763   8.525   4.024
16203SOL    HW153456   3.862   8.514   4.015
16203SOL    HW253457   3.723   8.439   4.056
16204SOL     OW53458   4.599   9.094   4.061
16204SOL    HW153459   4.522   9.059   4.007
16204SOL    HW253460   4.567   9.165   4.123
16205SOL     OW53461   3.949   7.723   6.582
16205SOL    HW153462   3.984   7.706   6.674
16205SOL    HW253463   3.861   7.678   6.570
16206SOL     OW53464   3.743   7.816   6.233
16206SOL    HW153465   3.661   7.859   6.272
16206SOL    HW253466   3.715   7.743   6.170
16207SOL     OW53467   4.293   8.723   6.751
16207SOL    HW153468   4.200   8.716   6.714
16207SOL    HW253469   4.304   8.812   6.795
16208SOL     OW53470   5.279   8.959   6.289
16208SOL    HW153471   5.222   8.943   6.370
16208SOL    HW253472   5.220   8.969   6.209
16209SOL     OW53473   4.859   8.151   6.303
16209SOL    HW153474   4.916   8.229   6.278
16209SOL    HW253475   4.799   8.177   6.379
16210SOL     OW53476   5.479   8.055   5.817
16210SOL    HW153477   5.467   8.042   5.718
16210SOL    HW253478   5.449   7.974   5.866
16211SOL     OW53479   4.492   8.592   6.609
16211SOL    HW153480   4.414   8.609   6.669
16211SOL    HW253481   4.526   8.679   6.573
16212SOL     OW53482   4.574   8.246   7.409
16212SOL    HW153483   4.570   8.322   7.474
16212SOL    HW253484   4.596   8.282   7.318
16213SOL     OW53485   4.409   8.460   6.251
16213SOL    HW153486   4.478   8.444   6.321
16213SOL    HW253487   4.336   8.517   6.289
16214SOL     OW53488   4.410   8.609   7.389
16214SOL    HW153489   4.470   8.688   7.403
16214SOL    HW253490   4.324   8.640   7.348
16215SOL     OW53491   4.059   8.883   6.647
16215SOL    HW153492   3.981   8.852   6.594
16215SOL    HW253493   4.117   8.941   6.590
16216SOL     OW53494   5.184   8.953   6.925
16216SOL    HW153495   5.208   9.047   6.951
16216SOL    HW253496   5.168   8.899   7.007
16217SOL     OW53497   4.162   7.840   7.085
16217SOL    HW153498   4.244   7.784   7.094
16217SOL    HW253499   4.081   7.782   7.089
16218SOL     OW53500   5.327   7.895   6.323
16218SOL    HW153501   5.253   7.941   6.273
16218SOL    HW253502   5.378   7.963   6.376
16219SOL     OW53503   3.955   9.161   6.069
16219SOL    HW153504   3.989   9.238   6.123
16219SOL    HW253505   3.999   9.161   5.979
16220SOL     OW53506   4.851   8.789   7.276
16220SOL    HW153507   4.898   8.789   7.364
16220SOL    HW253508   4.803   8.702   7.265
16221SOL     OW53509   3.954   8.882   6.124
16221SOL    HW153510   3.928   8.978   6.124
16221SOL    HW253511   3.883   8.828   6.169
16222SOL     OW53512   3.964   8.539   6.472
16222SOL    HW153513   3.978   8.455   6.524
16222SOL    HW253514   3.909   8.603   6.527
16223SOL     OW53515   4.344   9.234   7.025
16223SOL    HW153516   4.252   9.217   7.060
16223SOL    HW253517   4.372   9.326   7.051
16224SOL     OW53518   4.330   8.412   5.709
16224SOL    HW153519   4.337   8.496   5.655
16224SOL    HW253520   4.376   8.425   5.797
16225SOL     OW53521   5.318   7.562   7.066
16225SOL    HW153522   5.300   7.629   6.994
16225SOL    HW253523   5.315   7.608   7.155
16226SOL     OW53524   3.846   8.091   6.149
16226SOL    HW153525   3.801   8.003   6.166
16226SOL    HW253526   3.845   8.145   6.233
16227SOL     OW53527   5.566   9.215   5.945
16227SOL    HW153528   5.620   9.186   6.025
16227SOL    HW253529   5.596   9.305   5.916
16228SOL     OW53530   3.751   9.044   5.703
16228SOL    HW153531   3.732   8.948   5.724
16228SOL    HW253532   3.718   9.102   5.778
16229SOL     OW53533   5.413   8.370   6.198
16229SOL    HW153534   5.508   8.341   6.206
16229SOL    HW253535   5.405   8.435   6.123
16230SOL     OW53536   3.837   8.185   7.183
16230SOL    HW153537   3.925   8.172   7.228
16230SOL    HW253538   3.824   8.282   7.161
16231SOL     OW53539   4.337   8.813   6.312
16231SOL    HW153540   4.288   8.726   6.321
16231SOL    HW253541   4.314   8.856   6.225
16232SOL     OW53542   5.017   8.676   7.009
16232SOL    HW153543   5.054   8.603   6.951
16232SOL    HW253544   5.069   8.681   7.094
16233SOL     OW53545   4.533   7.452   6.088
16233SOL    HW153546   4.573   7.543   6.079
16233SOL    HW253547   4.433   7.460   6.094
16234SOL     OW53548   3.921   8.424   6.850
16234SOL    HW153549   4.010   8.379   6.836
16234SOL    HW253550   3.848   8.359   6.831
16235SOL     OW53551   5.249   8.447   5.776
16235SOL    HW153552   5.186   8.371   5.789
16235SOL    HW253553   5.297   8.465   5.862
16236SOL     OW53554   4.911   9.240   7.202
16236SOL    HW153555   4.935   9.300   7.126
16236SOL    HW253556   4.918   9.145   7.172
16237SOL     OW53557   4.041   7.699   7.387
16237SOL    HW153558   4.112   7.770   7.393
16237SOL    HW253559   3.953   7.738   7.415
16238SOL     OW53560   5.190   8.865   6.539
16238SOL    HW153561   5.131   8.871   6.619
16238SOL    HW253562   5.175   8.777   6.493
16239SOL     OW53563   5.391   9.162   6.158
16239SOL    HW153564   5.350   9.139   6.070
16239SOL    HW253565   5.373   9.088   6.223
16240SOL     OW53566   4.322   8.177   5.856
16240SOL    HW153567   4.346   8.246   5.788
16240SOL    HW253568   4.244   8.210   5.910
16241SOL     OW53569   5.005   7.793   6.530
16241SOL    HW153570   4.919   7.743   6.517
16241SOL    HW253571   5.067   7.739   6.586
16242SOL     OW53572   5.300   9.110   5.893
16242SOL    HW153573   5.389   9.156   5.896
16242SOL    HW253574   5.279   9.086   5.798
16243SOL     OW53575   5.118   7.917   7.260
16243SOL    HW153576   5.098   7.960   7.348
16243SOL    HW253577   5.196   7.855   7.269
16244SOL     OW53578   4.697   8.338   7.158
16244SOL    HW153579   4.743   8.254   7.129
16244SOL    HW253580   4.641   8.372   7.083
16245SOL     OW53581   4.765   8.149   6.015
16245SOL    HW153582   4.791   8.145   6.111
16245SOL    HW253583   4.680   8.098   6.001
16246SOL     OW53584   3.800   8.259   6.375
16246SOL    HW153585   3.899   8.247   6.384
16246SOL    HW253586   3.776   8.354   6.396
16247SOL     OW53587   3.854   9.269   7.157
16247SOL    HW153588   3.844   9.254   7.256
16247SOL    HW253589   3.768   9.305   7.121
16248SOL     OW53590   4.589   7.796   5.781
16248SOL    HW153591   4.648   7.859   5.732
16248SOL    HW253592   4.608   7.702   5.752
16249SOL     OW53593   5.086   8.592   6.131
16249SOL    HW153594   5.169   8.563   6.083
16249SOL    HW253595   5.037   8.659   6.075
16250SOL     OW53596   4.274   7.644   6.471
16250SOL    HW153597   4.269   7.639   6.571
16250SOL    HW253598   4.276   7.740   6.442
16251SOL     OW53599   4.732   8.904   6.063
16251SOL    HW153600   4.686   8.976   6.011
16251SOL    HW253601   4.728   8.924   6.161
16252SOL     OW53602   5.519   8.514   6.459
16252SOL    HW153603   5.457   8.499   6.383
16252SOL    HW253604   5.467   8.525   6.544
16253SOL     OW53605   4.951   8.998   7.092
16253SOL    HW153606   4.957   8.921   7.156
16253SOL    HW253607   4.899   8.972   7.012
16254SOL     OW53608   4.045   8.391   5.828
16254SOL    HW153609   4.127   8.430   5.786
16254SOL    HW253610   4.018   8.309   5.779
16255SOL     OW53611   5.182   8.183   6.314
16255SOL    HW153612   5.177   8.118   6.389
16255SOL    HW253613   5.262   8.242   6.327
16256SOL     OW53614   4.185   8.714   7.313
16256SOL    HW153615   4.135   8.715   7.227
16256SOL    HW253616   4.122   8.696   7.389
16257SOL     OW53617   4.835   9.224   5.823
16257SOL    HW153618   4.775   9.162   5.873
16257SOL    HW253619   4.866   9.180   5.738
16258SOL     OW53620   3.926   7.733   7.084
16258SOL    HW153621   3.846   7.793   7.071
16258SOL    HW253622   3.916   7.684   7.170
16259SOL     OW53623   5.356   8.825   5.667
16259SOL    HW153624   5.324   8.919   5.657
16259SOL    HW253625   5.280   8.762   5.655
16260SOL     OW53626   4.188   9.191   5.909
16260SOL    HW153627   4.221   9.230   5.995
16260SOL    HW253628   4.264   9.184   5.844
16261SOL     OW53629   5.124   7.555   6.012
16261SOL    HW153630   5.100   7.518   5.922
16261SOL    HW253631   5.223   7.571   6.016
16262SOL     OW53632   3.973   9.233   6.827
16262SOL    HW153633   4.030   9.168   6.877
16262SOL    HW253634   3.957   9.200   6.734
16263SOL     OW53635   4.664   9.146   6.490
16263SOL    HW153636   4.744   9.089   6.511
16263SOL    HW253637   4.615   9.106   6.413
16264SOL     OW53638   4.106   8.148   6.066
16264SOL    HW153639   4.151   8.058   6.063
16264SOL    HW253640   4.012   8.137   6.099
16265SOL     OW53641   5.271   7.670   7.315
16265SOL    HW153642   5.266   7.707   7.407
16265SOL    HW253643   5.199   7.601   7.303
16266SOL     OW53644   4.338   7.570   5.703
16266SOL    HW153645   4.436   7.548   5.710
16266SOL    HW253646   4.307   7.553   5.610
16267SOL     OW53647   4.505   7.712   7.335
16267SOL    HW153648   4.572   7.651   7.378
16267SOL    HW253649   4.432   7.731   7.400
16268SOL     OW53650   4.612   8.962   6.781
16268SOL    HW153651   4.589   8.937   6.687
16268SOL    HW253652   4.673   8.893   6.820
16269SOL     OW53653   5.075   8.038   7.019
16269SOL    HW153654   5.103   7.995   7.104
16269SOL    HW253655   5.100   8.134   7.020
16270SOL     OW53656   4.527   8.850   6.510
16270SOL    HW153657   4.617   8.864   6.468
16270SOL    HW253658   4.456   8.852   6.439
16271SOL     OW53659   4.646   7.951   6.485
16271SOL    HW153660   4.621   7.942   6.389
16271SOL    HW253661   4.694   7.869   6.516
16272SOL     OW53662   4.263   7.512   6.098
16272SOL    HW153663   4.182   7.513   6.156
16272SOL    HW253664   4.266   7.595   6.043
16273SOL     OW53665   5.158   8.636   5.627
16273SOL    HW153666   5.190   8.560   5.684
16273SOL    HW253667   5.066   8.663   5.657
16274SOL     OW53668   4.021   7.483   5.757
16274SOL    HW153669   4.070   7.567   5.736
16274SOL    HW253670   4.083   7.418   5.802
16275SOL     OW53671   4.659   7.684   6.066
16275SOL    HW153672   4.611   7.725   5.988
16275SOL    HW253673   4.758   7.682   6.047
16276SOL     OW53674   4.951   9.018   6.379
16276SOL    HW153675   4.972   9.092   6.314
16276SOL    HW253676   5.019   9.018   6.452
16277SOL     OW53677   4.183   8.600   6.327
16277SOL    HW153678   4.112   8.573   6.392
16277SOL    HW253679   4.157   8.572   6.234
16278SOL     OW53680   4.756   7.997   5.602
16278SOL    HW153681   4.715   8.079   5.563
16278SOL    HW253682   4.820   8.023   5.675
16279SOL     OW53683   3.802   8.004   6.972
16279SOL    HW153684   3.894   8.003   6.931
16279SOL    HW253685   3.796   8.078   7.039
16280SOL     OW53686   4.285   7.670   6.733
16280SOL    HW153687   4.323   7.586   6.770
16280SOL    HW253688   4.197   7.689   6.777
16281SOL     OW53689   4.590   7.902   6.228
16281SOL    HW153690   4.558   7.974   6.166
16281SOL    HW253691   4.614   7.821   6.175
16282SOL     OW53692   4.741   7.487   6.339
16282SOL    HW153693   4.669   7.492   6.270
16282SOL    HW253694   4.717   7.418   6.408
16283SOL     OW53695   5.153   8.621   6.453
16283SOL    HW153696   5.098   8.537   6.446
16283SOL    HW253697   5.179   8.650   6.361
16284SOL     OW53698   5.190   8.038   6.578
16284SOL    HW153699   5.160   7.943   6.585
16284SOL    HW253700   5.263   8.054   6.644
16285SOL     OW53701   5.581   8.281   5.963
16285SOL    HW153702   5.623   8.217   6.027
16285SOL    HW253703   5.543   8.230   5.885
16286SOL     OW53704   4.212   8.833   5.760
16286SOL    HW153705   4.125   8.818   5.807
16286SOL    HW253706   4.195   8.859   5.665
16287SOL     OW53707   5.388   8.728   6.243
16287SOL    HW153708   5.487   8.736   6.257
16287SOL    HW253709   5.343   8.812   6.274
16288SOL     OW53710   5.114   8.023   5.664
16288SOL    HW153711   5.060   8.002   5.745
16288SOL    HW253712   5.205   7.982   5.673
16289SOL     OW53713   4.251   7.704   5.914
16289SOL    HW153714   4.278   7.645   5.839
16289SOL    HW253715   4.251   7.799   5.883
16290SOL     OW53716   5.478   8.671   7.174
16290SOL    HW153717   5.569   8.632   7.161
16290SOL    HW253718   5.486   8.767   7.198
16291SOL     OW53719   4.788   8.795   6.926
16291SOL    HW153720   4.708   8.772   6.981
16291SOL    HW253721   4.871   8.769   6.975
16292SOL     OW53722   5.316   9.077   7.211
16292SOL    HW153723   5.343   9.111   7.121
16292SOL    HW253724   5.395   9.039   7.257
16293SOL     OW53725   5.362   8.547   6.665
16293SOL    HW153726   5.367   8.628   6.724
16293SOL    HW253727   5.276   8.549   6.614
16294SOL     OW53728   4.639   7.537   6.988
16294SOL    HW153729   4.664   7.517   6.893
16294SOL    HW253730   4.711   7.593   7.030
16295SOL     OW53731   4.704   8.564   7.305
16295SOL    HW153732   4.605   8.570   7.315
16295SOL    HW253733   4.727   8.484   7.249
16296SOL     OW53734   4.429   8.498   5.954
16296SOL    HW153735   4.415   8.505   6.053
16296SOL    HW253736   4.513   8.447   5.936
16297SOL     OW53737   4.134   8.261   6.837
16297SOL    HW153738   4.220   8.273   6.887
16297SOL    HW253739   4.092   8.174   6.864
16298SOL     OW53740   4.998   7.834   6.848
16298SOL    HW153741   5.019   7.908   6.912
16298SOL    HW253742   4.909   7.851   6.805
16299SOL     OW53743   3.788   9.012   6.917
16299SOL    HW153744   3.742   9.094   6.883
16299SOL    HW253745   3.886   9.031   6.926
16300SOL     OW53746   4.091   8.548   6.087
16300SOL    HW153747   4.084   8.631   6.031
16300SOL    HW253748   4.095   8.468   6.027
16301SOL     OW53749   4.290   7.985   6.451
16301SOL    HW153750   4.302   8.051   6.377
16301SOL    HW253751   4.336   8.019   6.534
16302SOL     OW53752   4.976   8.796   5.974
16302SOL    HW153753   5.026   8.873   6.014
16302SOL    HW253754   4.881   8.798   6.006
16303SOL     OW53755   4.996   8.893   6.728
16303SOL    HW153756   5.043   8.906   6.815
16303SOL    HW253757   4.930   8.819   6.737
16304SOL     OW53758   5.306   8.087   6.058
16304SOL    HW153759   5.275   8.148   6.131
16304SOL    HW253760   5.356   8.139   5.989
16305SOL     OW53761   4.078   8.958   6.915
16305SOL    HW153762   4.057   8.914   6.828
16305SOL    HW253763   4.175   8.984   6.918
16306SOL     OW53764   4.126   8.199   7.184
16306SOL    HW153765   4.194   8.254   7.137
16306SOL    HW253766   4.166   8.111   7.211
16307SOL     OW53767   4.737   7.553   7.356
16307SOL    HW153768   4.743   7.638   7.304
16307SOL    HW253769   4.769   7.477   7.299
16308SOL     OW53770   4.228   7.498   7.326
16308SOL    HW153771   4.186   7.441   7.256
16308SOL    HW253772   4.162   7.567   7.358
16309SOL     OW53773   4.297   8.318   6.615
16309SOL    HW153774   4.341   8.407   6.606
16309SOL    HW253775   4.234   8.318   6.692
16310SOL     OW53776   4.933   7.973   5.861
16310SOL    HW153777   4.946   7.889   5.915
16310SOL    HW253778   4.904   8.047   5.921
16311SOL     OW53779   4.031   7.661   6.817
16311SOL    HW153780   4.008   7.698   6.907
16311SOL    HW253781   4.001   7.566   6.811
16312SOL     OW53782   3.761   8.758   6.868
16312SOL    HW153783   3.814   8.709   6.936
16312SOL    HW253784   3.783   8.856   6.873
16313SOL     OW53785   4.456   8.082   6.650
16313SOL    HW153786   4.515   8.056   6.574
16313SOL    HW253787   4.428   8.178   6.639
16314SOL     OW53788   4.031   7.511   6.204
16314SOL    HW153789   4.020   7.605   6.237
16314SOL    HW253790   4.026   7.448   6.281
16315SOL     OW53791   5.346   7.815   5.960
16315SOL    HW153792   5.348   7.739   6.024
16315SOL    HW253793   5.298   7.892   6.000
16316SOL     OW53794   4.704   9.021   7.286
16316SOL    HW153795   4.684   9.065   7.198
16316SOL    HW253796   4.743   8.930   7.270
16317SOL     OW53797   4.074   8.346   7.390
16317SOL    HW153798   4.150   8.390   7.438
16317SOL    HW253799   4.109   8.299   7.308
16318SOL     OW53800   5.264   7.722   5.711
16318SOL    HW153801   5.203   7.647   5.734
16318SOL    HW253802   5.286   7.774   5.794
16319SOL     OW53803   5.027   8.286   5.628
16319SOL    HW153804   5.061   8.193   5.643
16319SOL    HW253805   5.045   8.313   5.533
16320SOL     OW53806   4.792   8.781   6.435
16320SOL    HW153807   4.799   8.697   6.380
16320SOL    HW253808   4.854   8.850   6.399
16321SOL     OW53809   4.043   8.258   6.535
16321SOL    HW153810   4.136   8.294   6.540
16321SOL    HW253811   4.037   8.173   6.587
16322SOL     OW53812   4.063   7.957   6.592
16322SOL    HW153813   4.011   7.874   6.575
16322SOL    HW253814   4.140   7.962   6.528
16323SOL     OW53815   4.862   7.828   7.264
16323SOL    HW153816   4.817   7.891   7.328
16323SOL    HW253817   4.955   7.859   7.247
16324SOL     OW53818   4.884   7.655   7.063
16324SOL    HW153819   4.884   7.719   7.140
16324SOL    HW253820   4.912   7.703   6.980
16325SOL     OW53821   3.732   8.774   5.786
16325SOL    HW153822   3.639   8.795   5.755
16325SOL    HW253823   3.742   8.675   5.799
16326SOL     OW53824   3.812   9.249   6.513
16326SOL    HW153825   3.770   9.163   6.486
16326SOL    HW253826   3.906   9.252   6.479
16327SOL     OW53827   4.228   9.016   6.496
16327SOL    HW153828   4.294   9.090   6.505
16327SOL    HW253829   4.272   8.937   6.454
16328SOL     OW53830   3.764   7.992   6.700
16328SOL    HW153831   3.849   7.959   6.659
16328SOL    HW253832   3.777   8.007   6.798
16329SOL     OW53833   3.913   7.968   7.308
16329SOL    HW153834   3.972   7.928   7.238
16329SOL    HW253835   3.855   8.039   7.267
16330SOL     OW53836   5.093   8.398   7.246
16330SOL    HW153837   5.132   8.487   7.266
16330SOL    HW253838   5.103   8.378   7.149
16331SOL     OW53839   4.539   8.020   5.911
16331SOL    HW153840   4.546   7.931   5.865
16331SOL    HW253841   4.445   8.054   5.903
16332SOL     OW53842   3.976   9.012   7.330
16332SOL    HW153843   3.946   9.069   7.406
16332SOL    HW253844   3.969   8.915   7.356
16333SOL     OW53845   4.395   7.912   6.855
16333SOL    HW153846   4.361   7.823   6.825
16333SOL    HW253847   4.421   7.966   6.775
16334SOL     OW53848   4.654   9.126   7.051
16334SOL    HW153849   4.630   9.108   6.956
16334SOL    HW253850   4.684   9.220   7.061
16335SOL     OW53851   4.197   7.948   5.777
16335SOL    HW153852   4.258   8.028   5.781
16335SOL    HW253853   4.102   7.979   5.784
16336SOL     OW53854   3.883   8.585   7.052
16336SOL    HW153855   3.905   8.524   7.128
16336SOL    HW253856   3.893   8.536   6.966
16337SOL     OW53857   5.026   8.303   5.895
16337SOL    HW153858   4.940   8.272   5.937
16337SOL    HW253859   5.022   8.289   5.796
16338SOL     OW53860   5.483   9.195   6.740
16338SOL    HW153861   5.544   9.225   6.667
16338SOL    HW253862   5.445   9.106   6.718
16339SOL     OW53863   4.976   9.179   6.714
16339SOL    HW153864   5.060   9.184   6.660
16339SOL    HW253865   4.953   9.083   6.732
16340SOL     OW53866   3.807   8.706   6.608
16340SOL    HW153867   3.802   8.705   6.708
16340SOL    HW253868   3.724   8.665   6.570
16341SOL     OW53869   4.412   9.110   7.302
16341SOL    HW153870   4.356   9.191   7.311
16341SOL    HW253871   4.464   9.114   7.216
16342SOL     OW53872   5.450   7.583   6.109
16342SOL    HW153873   5.523   7.566   6.042
16342SOL    HW253874   5.419   7.496   6.147
16343SOL     OW53875   5.112   9.021   6.063
16343SOL    HW153876   5.179   9.033   5.989
16343SOL    HW253877   5.072   9.110   6.086
16344SOL     OW53878   5.004   8.375   6.258
16344SOL    HW153879   5.064   8.294   6.260
16344SOL    HW253880   5.044   8.444   6.198
16345SOL     OW53881   4.554   8.721   7.008
16345SOL    HW153882   4.549   8.754   7.103
16345SOL    HW253883   4.468   8.740   6.962
16346SOL     OW53884   4.396   9.064   5.740
16346SOL    HW153885   4.405   9.074   5.641
16346SOL    HW253886   4.356   8.975   5.761
16347SOL     OW53887   5.374   9.168   6.980
16347SOL    HW153888   5.427   9.178   6.896
16347SOL    HW253889   5.347   9.258   7.014
16348SOL     OW53890   5.565   7.623   6.549
16348SOL    HW153891   5.604   7.538   6.513
16348SOL    HW253892   5.467   7.625   6.530
16349SOL     OW53893   3.987   7.774   6.306
16349SOL    HW153894   3.908   7.825   6.272
16349SOL    HW253895   3.978   7.759   6.404
16350SOL     OW53896   4.918   9.060   5.617
16350SOL    HW153897   4.924   8.967   5.654
16350SOL    HW253898   4.859   9.060   5.537
16351SOL     OW53899   4.546   8.450   6.958
16351SOL    HW153900   4.586   8.449   6.866
16351SOL    HW253901   4.556   8.542   6.998
16352SOL     OW53902   4.640   8.358   5.877
16352SOL    HW153903   4.703   8.396   5.809
16352SOL    HW253904   4.680   8.275   5.916
16353SOL     OW53905   5.228   9.055   5.630
16353SOL    HW153906   5.136   9.092   5.637
16353SOL    HW253907   5.266   9.075   5.540
16354SOL     OW53908   4.096   8.736   7.076
16354SOL    HW153909   4.083   8.829   7.042
16354SOL    HW253910   4.012   8.684   7.063
16355SOL     OW53911   5.338   8.740   6.875
16355SOL    HW153912   5.398   8.743   6.955
16355SOL    HW253913   5.263   8.804   6.888
16356SOL     OW53914   4.763   8.546   6.282
16356SOL    HW153915   4.693   8.499   6.336
16356SOL    HW253916   4.822   8.478   6.239
16357SOL     OW53917   4.738   7.684   6.557
16357SOL    HW153918   4.730   7.648   6.464
16357SOL    HW253919   4.736   7.608   6.622
16358SOL     OW53920   4.314   8.935   6.077
16358SOL    HW153921   4.356   8.877   6.007
16358SOL    HW253922   4.270   9.014   6.033
16359SOL     OW53923   3.979   8.796   5.876
16359SOL    HW153924   3.883   8.797   5.849
16359SOL    HW253925   3.991   8.849   5.960
16360SOL     OW53926   3.829   8.461   7.312
16360SOL    HW153927   3.752   8.428   7.366
16360SOL    HW253928   3.914   8.431   7.354
16361SOL     OW53929   3.799   7.793   5.619
16361SOL    HW153930   3.707   7.765   5.590
16361SOL    HW253931   3.830   7.870   5.563
16362SOL     OW53932   3.796   7.614   5.904
16362SOL    HW153933   3.779   7.697   5.850
16362SOL    HW253934   3.886   7.577   5.882
16363SOL     OW53935   4.907   8.783   5.705
16363SOL    HW153936   4.808   8.772   5.707
16363SOL    HW253937   4.941   8.798   5.798
16364SOL     OW53938   4.337   8.290   7.017
16364SOL    HW153939   4.393   8.371   7.000
16364SOL    HW253940   4.396   8.210   7.020
16365SOL     OW53941   5.217   9.215   6.545
16365SOL    HW153942   5.250   9.279   6.476
16365SOL    HW253943   5.283   9.209   6.620
16366SOL     OW53944   5.174   8.668   7.219
16366SOL    HW153945   5.165   8.658   7.318
16366SOL    HW253946   5.270   8.661   7.193
16367SOL     OW53947   4.114   9.189   7.146
16367SOL    HW153948   4.023   9.230   7.144
16367SOL    HW253949   4.107   9.095   7.178
16368SOL     OW53950   4.949   7.773   6.035
16368SOL    HW153951   5.014   7.699   6.024
16368SOL    HW253952   4.969   7.823   6.119
16369SOL     OW53953   4.318   8.193   6.238
16369SOL    HW153954   4.368   8.278   6.219
16369SOL    HW253955   4.230   8.195   6.190
16370SOL     OW53956   5.501   7.790   7.228
16370SOL    HW153957   5.484   7.821   7.134
16370SOL    HW253958   5.417   7.753   7.266
16371SOL     OW53959   5.454   8.382   7.103
16371SOL    HW153960   5.492   8.473   7.118
16371SOL    HW253961   5.446   8.365   7.004
16372SOL     OW53962   4.583   8.822   5.602
16372SOL    HW153963   4.537   8.837   5.690
16372SOL    HW253964   4.627   8.907   5.572
16373SOL     OW53965   4.385   9.238   6.539
16373SOL    HW153966   4.339   9.326   6.526
16373SOL    HW253967   4.484   9.250   6.532
16374SOL     OW53968   4.807   8.432   5.673
16374SOL    HW153969   4.784   8.485   5.591
16374SOL    HW253970   4.888   8.376   5.654
16375SOL     OW53971   5.585   9.017   6.437
16375SOL    HW153972   5.514   9.005   6.367
16375SOL    HW253973   5.586   8.938   6.497
16376SOL     OW53974   3.945   8.762   7.430
16376SOL    HW153975   3.880   8.689   7.409
16376SOL    HW253976   3.949   8.776   7.528
16377SOL     OW53977   3.803   8.688   6.239
16377SOL    HW153978   3.802   8.641   6.327
16377SOL    HW253979   3.885   8.660   6.188
16378SOL     OW53980   4.396   8.839   7.210
16378SOL    HW153981   4.318   8.789   7.248
16378SOL    HW253982   4.393   8.934   7.241
16379SOL     OW53983   5.548   7.640   6.813
16379SOL    HW153984   5.544   7.550   6.857
16379SOL    HW253985   5.551   7.629   6.714
16380SOL     OW53986   4.152   7.872   6.106
16380SOL    HW153987   4.182   7.800   6.044
16380SOL    HW253988   4.113   7.832   6.189
16381SOL     OW53989   5.429   8.935   6.690
16381SOL    HW153990   5.336   8.910   6.663
16381SOL    HW253991   5.455   8.885   6.772
16382SOL     OW53992   4.041   7.995   6.866
16382SOL    HW153993   4.079   7.936   6.938
16382SOL    HW253994   4.081   7.969   6.778
16383SOL     OW53995   4.536   9.034   6.273
16383SOL    HW153996   4.568   9.044   6.179
16383SOL    HW253997   4.457   8.972   6.275
16384SOL     OW53998   5.148   7.662   6.698
16384SOL    HW153999   5.200   7.597   6.753
16384SOL    HW254000   5.099   7.725   6.759
16385SOL     OW54001   4.725   7.482   6.740
16385SOL    HW154002   4.662   7.410   6.709
16385SOL    HW254003   4.818   7.446   6.740
16386SOL     OW54004   4.494   8.778   5.887
16386SOL    HW154005   4.448   8.691   5.904
16386SOL    HW254006   4.585   8.775   5.928
16387SOL     OW54007   4.342   9.015   6.870
16387SOL    HW154008   4.337   9.097   6.927
16387SOL    HW254009   4.431   9.012   6.825
16388SOL     OW54010   5.076   7.500   5.754
16388SOL    HW154011   5.111   7.459   5.670
16388SOL    HW254012   4.986   7.462   5.774
16389SOL     OW54013   5.024   7.901   6.277
16389SOL    HW154014   4.965   7.981   6.281
16389SOL    HW254015   5.039   7.866   6.370
16390SOL     OW54016   5.317   7.669   6.468
16390SOL    HW154017   5.233   7.668   6.522
16390SOL    HW254018   5.319   7.752   6.412
16391SOL     OW54019   3.763   8.525   5.886
16391SOL    HW154020   3.862   8.514   5.877
16391SOL    HW254021   3.723   8.439   5.918
16392SOL     OW54022   4.599   9.094   5.923
16392SOL    HW154023   4.522   9.059   5.869
16392SOL    HW254024   4.567   9.165   5.985
16393SOL     OW54025   3.954   8.076   7.561
16393SOL    HW154026   3.861   8.074   7.598
16393SOL    HW254027   3.955   8.037   7.469
16394SOL     OW54028   3.949   7.723   8.444
16394SOL    HW154029   3.984   7.706   8.536
16394SOL    HW254030   3.861   7.678   8.432
16395SOL     OW54031   3.743   7.816   8.095
16395SOL    HW154032   3.661   7.859   8.134
16395SOL    HW254033   3.715   7.743   8.032
16396SOL     OW54034   4.293   8.723   8.613
16396SOL    HW154035   4.200   8.716   8.576
16396SOL    HW254036   4.304   8.812   8.657
16397SOL     OW54037   5.279   8.959   8.151
16397SOL    HW154038   5.222   8.943   8.232
16397SOL    HW254039   5.220   8.969   8.071
16398SOL     OW54040   4.859   8.151   8.165
16398SOL    HW154041   4.916   8.229   8.140
16398SOL    HW254042   4.799   8.177   8.241
16399SOL     OW54043   5.479   8.055   7.679
16399SOL    HW154044   5.467   8.042   7.580
16399SOL    HW254045   5.449   7.974   7.728
16400SOL     OW54046   4.492   8.592   8.471
16400SOL    HW154047   4.414   8.609   8.531
16400SOL    HW254048   4.526   8.679   8.435
16401SOL     OW54049   4.409   8.460   8.113
16401SOL    HW154050   4.478   8.444   8.183
16401SOL    HW254051   4.336   8.517   8.151
16402SOL     OW54052   4.059   8.883   8.509
16402SOL    HW154053   3.981   8.852   8.456
16402SOL    HW254054   4.117   8.941   8.452
16403SOL     OW54055   5.184   8.953   8.787
16403SOL    HW154056   5.208   9.047   8.813
16403SOL    HW254057   5.168   8.899   8.869
16404SOL     OW54058   4.162   7.840   8.947
16404SOL    HW154059   4.244   7.784   8.956
16404SOL    HW254060   4.081   7.782   8.951
16405SOL     OW54061   5.327   7.895   8.185
16405SOL    HW154062   5.253   7.941   8.135
16405SOL    HW254063   5.378   7.963   8.238
16406SOL     OW54064   3.955   9.161   7.931
16406SOL    HW154065   3.989   9.238   7.985
16406SOL    HW254066   3.999   9.161   7.841
16407SOL     OW54067   4.851   8.789   9.138
16407SOL    HW154068   4.898   8.789   9.226
16407SOL    HW254069   4.803   8.702   9.127
16408SOL     OW54070   3.954   8.882   7.986
16408SOL    HW154071   3.928   8.978   7.986
16408SOL    HW254072   3.883   8.828   8.031
16409SOL     OW54073   4.344   9.234   8.887
16409SOL    HW154074   4.252   9.217   8.922
16409SOL    HW254075   4.372   9.326   8.913
16410SOL     OW54076   4.330   8.412   7.571
16410SOL    HW154077   4.337   8.496   7.517
16410SOL    HW254078   4.376   8.425   7.659
16411SOL     OW54079   5.318   7.562   8.928
16411SOL    HW154080   5.300   7.629   8.856
16411SOL    HW254081   5.315   7.608   9.017
16412SOL     OW54082   3.846   8.091   8.011
16412SOL    HW154083   3.801   8.003   8.028
16412SOL    HW254084   3.845   8.145   8.095
16413SOL     OW54085   5.566   9.215   7.807
16413SOL    HW154086   5.620   9.186   7.887
16413SOL    HW254087   5.596   9.305   7.778
16414SOL     OW54088   3.751   9.044   7.565
16414SOL    HW154089   3.732   8.948   7.586
16414SOL    HW254090   3.718   9.102   7.640
16415SOL     OW54091   5.413   8.370   8.060
16415SOL    HW154092   5.508   8.341   8.068
16415SOL    HW254093   5.405   8.435   7.985
16416SOL     OW54094   5.365   8.556   7.880
16416SOL    HW154095   5.451   8.558   7.828
16416SOL    HW254096   5.379   8.603   7.968
16417SOL     OW54097   3.837   8.185   9.045
16417SOL    HW154098   3.925   8.172   9.090
16417SOL    HW254099   3.824   8.282   9.023
16418SOL     OW54100   4.337   8.813   8.174
16418SOL    HW154101   4.288   8.726   8.183
16418SOL    HW254102   4.314   8.856   8.087
16419SOL     OW54103   5.017   8.676   8.871
16419SOL    HW154104   5.054   8.603   8.813
16419SOL    HW254105   5.069   8.681   8.956
16420SOL     OW54106   4.533   7.452   7.950
16420SOL    HW154107   4.573   7.543   7.941
16420SOL    HW254108   4.433   7.460   7.956
16421SOL     OW54109   3.921   8.424   8.712
16421SOL    HW154110   4.010   8.379   8.698
16421SOL    HW254111   3.848   8.359   8.693
16422SOL     OW54112   5.249   8.447   7.638
16422SOL    HW154113   5.186   8.371   7.651
16422SOL    HW254114   5.297   8.465   7.724
16423SOL     OW54115   4.911   9.240   9.064
16423SOL    HW154116   4.935   9.300   8.988
16423SOL    HW254117   4.918   9.145   9.034
16424SOL     OW54118   4.041   7.699   9.249
16424SOL    HW154119   4.112   7.770   9.255
16424SOL    HW254120   3.953   7.738   9.277
16425SOL     OW54121   5.190   8.865   8.401
16425SOL    HW154122   5.131   8.871   8.481
16425SOL    HW254123   5.175   8.777   8.355
16426SOL     OW54124   5.391   9.162   8.020
16426SOL    HW154125   5.350   9.139   7.932
16426SOL    HW254126   5.373   9.088   8.085
16427SOL     OW54127   4.322   8.177   7.718
16427SOL    HW154128   4.346   8.246   7.650
16427SOL    HW254129   4.244   8.210   7.772
16428SOL     OW54130   5.300   9.110   7.755
16428SOL    HW154131   5.389   9.156   7.758
16428SOL    HW254132   5.279   9.086   7.660
16429SOL     OW54133   4.697   8.338   9.020
16429SOL    HW154134   4.743   8.254   8.991
16429SOL    HW254135   4.641   8.372   8.945
16430SOL     OW54136   4.715   7.858   8.690
16430SOL    HW154137   4.638   7.892   8.744
16430SOL    HW254138   4.681   7.807   8.611
16431SOL     OW54139   4.765   8.149   7.877
16431SOL    HW154140   4.791   8.145   7.973
16431SOL    HW254141   4.680   8.098   7.863
16432SOL     OW54142   3.800   8.259   8.237
16432SOL    HW154143   3.899   8.247   8.246
16432SOL    HW254144   3.776   8.354   8.258
16433SOL     OW54145   4.589   7.796   7.643
16433SOL    HW154146   4.648   7.859   7.594
16433SOL    HW254147   4.608   7.702   7.614
16434SOL     OW54148   5.086   8.592   7.993
16434SOL    HW154149   5.169   8.563   7.945
16434SOL    HW254150   5.037   8.659   7.937
16435SOL     OW54151   4.274   7.644   8.333
16435SOL    HW154152   4.269   7.639   8.433
16435SOL    HW254153   4.276   7.740   8.304
16436SOL     OW54154   4.732   8.904   7.925
16436SOL    HW154155   4.686   8.976   7.873
16436SOL    HW254156   4.728   8.924   8.023
16437SOL     OW54157   4.075   9.249   8.301
16437SOL    HW154158   4.125   9.163   8.307
16437SOL    HW254159   4.140   9.326   8.298
16438SOL     OW54160   5.519   8.514   8.321
16438SOL    HW154161   5.457   8.499   8.245
16438SOL    HW254162   5.467   8.525   8.406
16439SOL     OW54163   4.951   8.998   8.954
16439SOL    HW154164   4.957   8.921   9.018
16439SOL    HW254165   4.899   8.972   8.874
16440SOL     OW54166   5.182   8.183   8.176
16440SOL    HW154167   5.177   8.118   8.251
16440SOL    HW254168   5.262   8.242   8.189
16441SOL     OW54169   4.185   8.714   9.175
16441SOL    HW154170   4.135   8.715   9.089
16441SOL    HW254171   4.122   8.696   9.251
16442SOL     OW54172   4.835   9.224   7.685
16442SOL    HW154173   4.775   9.162   7.735
16442SOL    HW254174   4.866   9.180   7.600
16443SOL     OW54175   3.926   7.733   8.946
16443SOL    HW154176   3.846   7.793   8.933
16443SOL    HW254177   3.916   7.684   9.032
16444SOL     OW54178   5.356   8.825   7.529
16444SOL    HW154179   5.324   8.919   7.519
16444SOL    HW254180   5.280   8.762   7.517
16445SOL     OW54181   4.188   9.191   7.771
16445SOL    HW154182   4.221   9.230   7.857
16445SOL    HW254183   4.264   9.184   7.706
16446SOL     OW54184   5.124   7.555   7.874
16446SOL    HW154185   5.100   7.518   7.784
16446SOL    HW254186   5.223   7.571   7.878
16447SOL     OW54187   3.973   9.233   8.689
16447SOL    HW154188   4.030   9.168   8.739
16447SOL    HW254189   3.957   9.200   8.596
16448SOL     OW54190   4.664   9.146   8.352
16448SOL    HW154191   4.744   9.089   8.373
16448SOL    HW254192   4.615   9.106   8.275
16449SOL     OW54193   4.106   8.148   7.928
16449SOL    HW154194   4.151   8.058   7.925
16449SOL    HW254195   4.012   8.137   7.961
16450SOL     OW54196   4.338   7.570   7.565
16450SOL    HW154197   4.436   7.548   7.572
16450SOL    HW254198   4.307   7.553   7.472
16451SOL     OW54199   4.505   7.712   9.197
16451SOL    HW154200   4.572   7.651   9.240
16451SOL    HW254201   4.432   7.731   9.262
16452SOL     OW54202   4.612   8.962   8.643
16452SOL    HW154203   4.589   8.937   8.549
16452SOL    HW254204   4.673   8.893   8.682
16453SOL     OW54205   5.075   8.038   8.881
16453SOL    HW154206   5.103   7.995   8.966
16453SOL    HW254207   5.100   8.134   8.882
16454SOL     OW54208   4.527   8.850   8.372
16454SOL    HW154209   4.617   8.864   8.330
16454SOL    HW254210   4.456   8.852   8.301
16455SOL     OW54211   4.646   7.951   8.347
16455SOL    HW154212   4.621   7.942   8.251
16455SOL    HW254213   4.694   7.869   8.378
16456SOL     OW54214   4.263   7.512   7.960
16456SOL    HW154215   4.182   7.513   8.018
16456SOL    HW254216   4.266   7.595   7.905
16457SOL     OW54217   5.158   8.636   7.489
16457SOL    HW154218   5.190   8.560   7.546
16457SOL    HW254219   5.066   8.663   7.519
16458SOL     OW54220   4.021   7.483   7.619
16458SOL    HW154221   4.070   7.567   7.598
16458SOL    HW254222   4.083   7.418   7.664
16459SOL     OW54223   4.659   7.684   7.928
16459SOL    HW154224   4.611   7.725   7.850
16459SOL    HW254225   4.758   7.682   7.909
16460SOL     OW54226   4.800   8.131   8.912
16460SOL    HW154227   4.720   8.070   8.915
16460SOL    HW254228   4.881   8.078   8.888
16461SOL     OW54229   4.951   9.018   8.241
16461SOL    HW154230   4.972   9.092   8.176
16461SOL    HW254231   5.019   9.018   8.314
16462SOL     OW54232   4.756   7.997   7.464
16462SOL    HW154233   4.715   8.079   7.425
16462SOL    HW254234   4.820   8.023   7.537
16463SOL     OW54235   3.802   8.004   8.834
16463SOL    HW154236   3.894   8.003   8.793
16463SOL    HW254237   3.796   8.078   8.901
16464SOL     OW54238   4.285   7.670   8.595
16464SOL    HW154239   4.323   7.586   8.632
16464SOL    HW254240   4.197   7.689   8.639
16465SOL     OW54241   4.590   7.902   8.090
16465SOL    HW154242   4.558   7.974   8.028
16465SOL    HW254243   4.614   7.821   8.037
16466SOL     OW54244   4.741   7.487   8.201
16466SOL    HW154245   4.669   7.492   8.132
16466SOL    HW254246   4.717   7.418   8.270
16467SOL     OW54247   5.153   8.621   8.315
16467SOL    HW154248   5.098   8.537   8.308
16467SOL    HW254249   5.179   8.650   8.223
16468SOL     OW54250   5.190   8.038   8.440
16468SOL    HW154251   5.160   7.943   8.447
16468SOL    HW254252   5.263   8.054   8.506
16469SOL     OW54253   5.581   8.281   7.825
16469SOL    HW154254   5.623   8.217   7.889
16469SOL    HW254255   5.543   8.230   7.747
16470SOL     OW54256   4.212   8.833   7.622
16470SOL    HW154257   4.125   8.818   7.669
16470SOL    HW254258   4.195   8.859   7.527
16471SOL     OW54259   5.388   8.728   8.105
16471SOL    HW154260   5.487   8.736   8.119
16471SOL    HW254261   5.343   8.812   8.136
16472SOL     OW54262   5.114   8.023   7.526
16472SOL    HW154263   5.060   8.002   7.607
16472SOL    HW254264   5.205   7.982   7.535
16473SOL     OW54265   4.251   7.704   7.776
16473SOL    HW154266   4.278   7.645   7.701
16473SOL    HW254267   4.251   7.799   7.745
16474SOL     OW54268   5.478   8.671   9.036
16474SOL    HW154269   5.569   8.632   9.023
16474SOL    HW254270   5.486   8.767   9.060
16475SOL     OW54271   4.788   8.795   8.788
16475SOL    HW154272   4.708   8.772   8.843
16475SOL    HW254273   4.871   8.769   8.837
16476SOL     OW54274   5.316   9.077   9.073
16476SOL    HW154275   5.343   9.111   8.983
16476SOL    HW254276   5.395   9.039   9.119
16477SOL     OW54277   4.835   8.643   8.548
16477SOL    HW154278   4.795   8.687   8.629
16477SOL    HW254279   4.794   8.680   8.465
16478SOL     OW54280   5.362   8.547   8.527
16478SOL    HW154281   5.367   8.628   8.586
16478SOL    HW254282   5.276   8.549   8.476
16479SOL     OW54283   4.639   7.537   8.850
16479SOL    HW154284   4.664   7.517   8.755
16479SOL    HW254285   4.711   7.593   8.892
16480SOL     OW54286   4.704   8.564   9.167
16480SOL    HW154287   4.605   8.570   9.177
16480SOL    HW254288   4.727   8.484   9.111
16481SOL     OW54289   4.429   8.498   7.816
16481SOL    HW154290   4.415   8.505   7.915
16481SOL    HW254291   4.513   8.447   7.798
16482SOL     OW54292   4.998   7.834   8.710
16482SOL    HW154293   5.019   7.908   8.774
16482SOL    HW254294   4.909   7.851   8.667
16483SOL     OW54295   3.788   9.012   8.779
16483SOL    HW154296   3.742   9.094   8.745
16483SOL    HW254297   3.886   9.031   8.788
16484SOL     OW54298   4.091   8.548   7.949
16484SOL    HW154299   4.084   8.631   7.893
16484SOL    HW254300   4.095   8.468   7.889
16485SOL     OW54301   4.290   7.985   8.313
16485SOL    HW154302   4.302   8.051   8.239
16485SOL    HW254303   4.336   8.019   8.396
16486SOL     OW54304   4.976   8.796   7.836
16486SOL    HW154305   5.026   8.873   7.876
16486SOL    HW254306   4.881   8.798   7.868
16487SOL     OW54307   4.996   8.893   8.590
16487SOL    HW154308   5.043   8.906   8.677
16487SOL    HW254309   4.930   8.819   8.599
16488SOL     OW54310   5.306   8.087   7.920
16488SOL    HW154311   5.275   8.148   7.993
16488SOL    HW254312   5.356   8.139   7.851
16489SOL     OW54313   4.078   8.958   8.777
16489SOL    HW154314   4.057   8.914   8.690
16489SOL    HW254315   4.175   8.984   8.780
16490SOL     OW54316   5.311   8.227   9.118
16490SOL    HW154317   5.219   8.265   9.113
16490SOL    HW254318   5.371   8.274   9.053
16491SOL     OW54319   4.737   7.553   9.218
16491SOL    HW154320   4.743   7.638   9.166
16491SOL    HW254321   4.769   7.477   9.161
16492SOL     OW54322   4.228   7.498   9.188
16492SOL    HW154323   4.186   7.441   9.118
16492SOL    HW254324   4.162   7.567   9.220
16493SOL     OW54325   5.084   8.310   8.493
16493SOL    HW154326   5.009   8.310   8.427
16493SOL    HW254327   5.121   8.218   8.502
16494SOL     OW54328   4.933   7.973   7.723
16494SOL    HW154329   4.946   7.889   7.777
16494SOL    HW254330   4.904   8.047   7.783
16495SOL     OW54331   4.031   7.661   8.679
16495SOL    HW154332   4.008   7.698   8.769
16495SOL    HW254333   4.001   7.566   8.673
16496SOL     OW54334   3.761   8.758   8.730
16496SOL    HW154335   3.814   8.709   8.798
16496SOL    HW254336   3.783   8.856   8.735
16497SOL     OW54337   4.456   8.082   8.512
16497SOL    HW154338   4.515   8.056   8.436
16497SOL    HW254339   4.428   8.178   8.501
16498SOL     OW54340   5.452   8.383   9.302
16498SOL    HW154341   5.406   8.376   9.213
16498SOL    HW254342   5.390   8.427   9.368
16499SOL     OW54343   4.031   7.511   8.066
16499SOL    HW154344   4.020   7.605   8.099
16499SOL    HW254345   4.026   7.448   8.143
16500SOL     OW54346   5.346   7.815   7.822
16500SOL    HW154347   5.348   7.739   7.886
16500SOL    HW254348   5.298   7.892   7.862
16501SOL     OW54349   4.747   8.214   8.414
16501SOL    HW154350   4.762   8.235   8.510
16501SOL    HW254351   4.717   8.119   8.405
16502SOL     OW54352   4.704   9.021   9.148
16502SOL    HW154353   4.684   9.065   9.060
16502SOL    HW254354   4.743   8.930   9.132
16503SOL     OW54355   5.583   8.966   9.053
16503SOL    HW154356   5.597   8.993   8.958
16503SOL    HW254357   5.666   8.988   9.106
16504SOL     OW54358   5.264   7.722   7.573
16504SOL    HW154359   5.203   7.647   7.596
16504SOL    HW254360   5.286   7.774   7.656
16505SOL     OW54361   5.027   8.286   7.490
16505SOL    HW154362   5.061   8.193   7.505
16505SOL    HW254363   5.045   8.313   7.395
16506SOL     OW54364   4.792   8.781   8.297
16506SOL    HW154365   4.799   8.697   8.242
16506SOL    HW254366   4.854   8.850   8.261
16507SOL     OW54367   4.063   7.957   8.454
16507SOL    HW154368   4.011   7.874   8.437
16507SOL    HW254369   4.140   7.962   8.390
16508SOL     OW54370   4.862   7.828   9.126
16508SOL    HW154371   4.817   7.891   9.190
16508SOL    HW254372   4.955   7.859   9.109
16509SOL     OW54373   4.884   7.655   8.925
16509SOL    HW154374   4.884   7.719   9.002
16509SOL    HW254375   4.912   7.703   8.842
16510SOL     OW54376   3.732   8.774   7.648
16510SOL    HW154377   3.639   8.795   7.617
16510SOL    HW254378   3.742   8.675   7.661
16511SOL     OW54379   3.812   9.249   8.375
16511SOL    HW154380   3.770   9.163   8.348
16511SOL    HW254381   3.906   9.252   8.341
16512SOL     OW54382   4.228   9.016   8.358
16512SOL    HW154383   4.294   9.090   8.367
16512SOL    HW254384   4.272   8.937   8.316
16513SOL     OW54385   4.726   8.244   8.686
16513SOL    HW154386   4.767   8.212   8.772
16513SOL    HW254387   4.630   8.217   8.683
16514SOL     OW54388   3.764   7.992   8.562
16514SOL    HW154389   3.849   7.959   8.521
16514SOL    HW254390   3.777   8.007   8.660
16515SOL     OW54391   3.913   7.968   9.170
16515SOL    HW154392   3.972   7.928   9.100
16515SOL    HW254393   3.855   8.039   9.129
16516SOL     OW54394   5.093   8.398   9.108
16516SOL    HW154395   5.132   8.487   9.128
16516SOL    HW254396   5.103   8.378   9.011
16517SOL     OW54397   4.539   8.020   7.773
16517SOL    HW154398   4.546   7.931   7.727
16517SOL    HW254399   4.445   8.054   7.765
16518SOL     OW54400   5.381   8.052   8.654
16518SOL    HW154401   5.343   7.983   8.716
16518SOL    HW254402   5.463   8.016   8.610
16519SOL     OW54403   3.976   9.012   9.192
16519SOL    HW154404   3.946   9.069   9.268
16519SOL    HW254405   3.969   8.915   9.218
16520SOL     OW54406   4.395   7.912   8.717
16520SOL    HW154407   4.361   7.823   8.687
16520SOL    HW254408   4.421   7.966   8.637
16521SOL     OW54409   4.654   9.126   8.913
16521SOL    HW154410   4.630   9.108   8.818
16521SOL    HW254411   4.684   9.220   8.923
16522SOL     OW54412   4.197   7.948   7.639
16522SOL    HW154413   4.258   8.028   7.643
16522SOL    HW254414   4.102   7.979   7.646
16523SOL     OW54415   3.883   8.585   8.914
16523SOL    HW154416   3.905   8.524   8.990
16523SOL    HW254417   3.893   8.536   8.828
16524SOL     OW54418   5.071   8.507   8.682
16524SOL    HW154419   5.095   8.444   8.608
16524SOL    HW254420   4.981   8.547   8.664
16525SOL     OW54421   5.026   8.303   7.757
16525SOL    HW154422   4.940   8.272   7.799
16525SOL    HW254423   5.022   8.289   7.658
16526SOL     OW54424   5.483   9.195   8.602
16526SOL    HW154425   5.544   9.225   8.529
16526SOL    HW254426   5.445   9.106   8.580
16527SOL     OW54427   4.976   9.179   8.576
16527SOL    HW154428   5.060   9.184   8.522
16527SOL    HW254429   4.953   9.083   8.594
16528SOL     OW54430   3.807   8.706   8.470
16528SOL    HW154431   3.802   8.705   8.570
16528SOL    HW254432   3.724   8.665   8.432
16529SOL     OW54433   4.412   9.110   9.164
16529SOL    HW154434   4.356   9.191   9.173
16529SOL    HW254435   4.464   9.114   9.078
16530SOL     OW54436   5.450   7.583   7.971
16530SOL    HW154437   5.523   7.566   7.904
16530SOL    HW254438   5.419   7.496   8.009
16531SOL     OW54439   5.112   9.021   7.925
16531SOL    HW154440   5.179   9.033   7.851
16531SOL    HW254441   5.072   9.110   7.948
16532SOL     OW54442   3.854   9.242   9.299
16532SOL    HW154443   3.813   9.168   9.352
16532SOL    HW254444   3.918   9.293   9.357
16533SOL     OW54445   5.004   8.375   8.120
16533SOL    HW154446   5.064   8.294   8.122
16533SOL    HW254447   5.044   8.444   8.060
16534SOL     OW54448   4.554   8.721   8.870
16534SOL    HW154449   4.549   8.754   8.965
16534SOL    HW254450   4.468   8.740   8.824
16535SOL     OW54451   4.396   9.064   7.602
16535SOL    HW154452   4.405   9.074   7.503
16535SOL    HW254453   4.356   8.975   7.623
16536SOL     OW54454   5.374   9.168   8.842
16536SOL    HW154455   5.427   9.178   8.758
16536SOL    HW254456   5.347   9.258   8.876
16537SOL     OW54457   5.565   7.623   8.411
16537SOL    HW154458   5.604   7.538   8.375
16537SOL    HW254459   5.467   7.625   8.392
16538SOL     OW54460   3.987   7.774   8.168
16538SOL    HW154461   3.908   7.825   8.134
16538SOL    HW254462   3.978   7.759   8.266
16539SOL     OW54463   4.918   9.060   7.479
16539SOL    HW154464   4.924   8.967   7.516
16539SOL    HW254465   4.859   9.060   7.399
16540SOL     OW54466   4.546   8.450   8.820
16540SOL    HW154467   4.586   8.449   8.728
16540SOL    HW254468   4.556   8.542   8.860
16541SOL     OW54469   4.640   8.358   7.739
16541SOL    HW154470   4.703   8.396   7.671
16541SOL    HW254471   4.680   8.275   7.778
16542SOL     OW54472   5.228   9.055   7.492
16542SOL    HW154473   5.136   9.092   7.499
16542SOL    HW254474   5.266   9.075   7.402
16543SOL     OW54475   4.096   8.736   8.938
16543SOL    HW154476   4.083   8.829   8.904
16543SOL    HW254477   4.012   8.684   8.925
16544SOL     OW54478   5.338   8.740   8.737
16544SOL    HW154479   5.398   8.743   8.817
16544SOL    HW254480   5.263   8.804   8.750
16545SOL     OW54481   4.763   8.546   8.144
16545SOL    HW154482   4.693   8.499   8.198
16545SOL    HW254483   4.822   8.478   8.101
16546SOL     OW54484   4.738   7.684   8.419
16546SOL    HW154485   4.730   7.648   8.326
16546SOL    HW254486   4.736   7.608   8.484
16547SOL     OW54487   4.314   8.935   7.939
16547SOL    HW154488   4.356   8.877   7.869
16547SOL    HW254489   4.270   9.014   7.895
16548SOL     OW54490   5.433   7.833   8.829
16548SOL    HW154491   5.506   7.902   8.833
16548SOL    HW254492   5.461   7.758   8.770
16549SOL     OW54493   3.979   8.796   7.738
16549SOL    HW154494   3.883   8.797   7.711
16549SOL    HW254495   3.991   8.849   7.822
16550SOL     OW54496   4.396   7.651   8.937
16550SOL    HW154497   4.486   7.635   8.897
16550SOL    HW254498   4.404   7.656   9.036
16551SOL     OW54499   3.799   7.793   7.481
16551SOL    HW154500   3.707   7.765   7.452
16551SOL    HW254501   3.830   7.870   7.425
16552SOL     OW54502   5.164   8.304   8.846
16552SOL    HW154503   5.107   8.356   8.783
16552SOL    HW254504   5.260   8.316   8.822
16553SOL     OW54505   3.796   7.614   7.766
16553SOL    HW154506   3.779   7.697   7.712
16553SOL    HW254507   3.886   7.577   7.744
16554SOL     OW54508   4.337   8.290   8.879
16554SOL    HW154509   4.393   8.371   8.862
16554SOL    HW254510   4.396   8.210   8.882
16555SOL     OW54511   5.217   9.215   8.407
16555SOL    HW154512   5.250   9.279   8.338
16555SOL    HW254513   5.283   9.209   8.482
16556SOL     OW54514   5.174   8.668   9.081
16556SOL    HW154515   5.165   8.658   9.180
16556SOL    HW254516   5.270   8.661   9.055
16557SOL     OW54517   5.398   8.331   8.702
16557SOL    HW154518   5.371   8.242   8.665
16557SOL    HW254519   5.399   8.399   8.629
16558SOL     OW54520   4.949   7.773   7.897
16558SOL    HW154521   5.014   7.699   7.886
16558SOL    HW254522   4.969   7.823   7.981
16559SOL     OW54523   4.318   8.193   8.100
16559SOL    HW154524   4.368   8.278   8.081
16559SOL    HW254525   4.230   8.195   8.052
16560SOL     OW54526   5.454   8.382   8.965
16560SOL    HW154527   5.492   8.473   8.980
16560SOL    HW254528   5.446   8.365   8.866
16561SOL     OW54529   4.583   8.822   7.464
16561SOL    HW154530   4.537   8.837   7.552
16561SOL    HW254531   4.627   8.907   7.434
16562SOL     OW54532   4.385   9.238   8.401
16562SOL    HW154533   4.339   9.326   8.388
16562SOL    HW254534   4.484   9.250   8.394
16563SOL     OW54535   4.583   8.404   8.309
16563SOL    HW154536   4.637   8.335   8.357
16563SOL    HW254537   4.551   8.473   8.375
16564SOL     OW54538   4.807   8.432   7.535
16564SOL    HW154539   4.784   8.485   7.453
16564SOL    HW254540   4.888   8.376   7.516
16565SOL     OW54541   5.585   9.017   8.299
16565SOL    HW154542   5.514   9.005   8.229
16565SOL    HW254543   5.586   8.938   8.359
16566SOL     OW54544   3.803   8.688   8.101
16566SOL    HW154545   3.802   8.641   8.189
16566SOL    HW254546   3.885   8.660   8.050
16567SOL     OW54547   4.396   8.839   9.072
16567SOL    HW154548   4.318   8.789   9.110
16567SOL    HW254549   4.393   8.934   9.103
16568SOL     OW54550   5.548   7.640   8.675
16568SOL    HW154551   5.544   7.550   8.719
16568SOL    HW254552   5.551   7.629   8.576
16569SOL     OW54553   4.152   7.872   7.968
16569SOL    HW154554   4.182   7.800   7.906
16569SOL    HW254555   4.113   7.832   8.051
16570SOL     OW54556   5.429   8.935   8.552
16570SOL    HW154557   5.336   8.910   8.525
16570SOL    HW254558   5.455   8.885   8.634
16571SOL     OW54559   4.041   7.995   8.728
16571SOL    HW154560   4.079   7.936   8.800
16571SOL    HW254561   4.081   7.969   8.640
16572SOL     OW54562   4.536   9.034   8.135
16572SOL    HW154563   4.568   9.044   8.041
16572SOL    HW254564   4.457   8.972   8.137
16573SOL     OW54565   5.148   7.662   8.560
16573SOL    HW154566   5.200   7.597   8.615
16573SOL    HW254567   5.099   7.725   8.621
16574SOL     OW54568   4.725   7.482   8.602
16574SOL    HW154569   4.662   7.410   8.571
16574SOL    HW254570   4.818   7.446   8.602
16575SOL     OW54571   4.494   8.778   7.749
16575SOL    HW154572   4.448   8.691   7.766
16575SOL    HW254573   4.585   8.775   7.790
16576SOL     OW54574   4.342   9.015   8.732
16576SOL    HW154575   4.337   9.097   8.789
16576SOL    HW254576   4.431   9.012   8.687
16577SOL     OW54577   5.076   7.500   7.616
16577SOL    HW154578   5.111   7.459   7.532
16577SOL    HW254579   4.986   7.462   7.636
16578SOL     OW54580   5.024   7.901   8.139
16578SOL    HW154581   4.965   7.981   8.143
16578SOL    HW254582   5.039   7.866   8.232
16579SOL     OW54583   5.317   7.669   8.330
16579SOL    HW154584   5.233   7.668   8.384
16579SOL    HW254585   5.319   7.752   8.274
16580SOL     OW54586   3.763   8.525   7.748
16580SOL    HW154587   3.862   8.514   7.739
16580SOL    HW254588   3.723   8.439   7.780
16581SOL     OW54589   4.599   9.094   7.785
16581SOL    HW154590   4.522   9.059   7.731
16581SOL    HW254591   4.567   9.165   7.847
16582SOL     OW54592   3.954   8.076   9.423
16582SOL    HW154593   3.861   8.074   9.460
16582SOL    HW254594   3.955   8.037   9.331
16583SOL     OW54595   3.955   9.161   9.793
16583SOL    HW154596   3.989   9.238   9.847
16583SOL    HW254597   3.999   9.161   9.703
16584SOL     OW54598   3.954   8.882   9.848
16584SOL    HW154599   3.928   8.978   9.848
16584SOL    HW254600   3.883   8.828   9.893
16585SOL     OW54601   3.846   8.091   9.873
16585SOL    HW154602   3.801   8.003   9.890
16585SOL    HW254603   3.845   8.145   9.957
16586SOL     OW54604   5.566   9.215   9.669
16586SOL    HW154605   5.620   9.186   9.749
16586SOL    HW254606   5.596   9.305   9.640
16587SOL     OW54607   3.751   9.044   9.427
16587SOL    HW154608   3.732   8.948   9.448
16587SOL    HW254609   3.718   9.102   9.502
16588SOL     OW54610   5.413   8.370   9.922
16588SOL    HW154611   5.508   8.341   9.930
16588SOL    HW254612   5.405   8.435   9.847
16589SOL     OW54613   5.365   8.556   9.742
16589SOL    HW154614   5.451   8.558   9.690
16589SOL    HW254615   5.379   8.603   9.830
16590SOL     OW54616   4.337   8.813  10.036
16590SOL    HW154617   4.288   8.726  10.045
16590SOL    HW254618   4.314   8.856   9.949
16591SOL     OW54619   4.533   7.452   9.812
16591SOL    HW154620   4.573   7.543   9.803
16591SOL    HW254621   4.433   7.460   9.818
16592SOL     OW54622   5.249   8.447   9.500
16592SOL    HW154623   5.186   8.371   9.513
16592SOL    HW254624   5.297   8.465   9.586
16593SOL     OW54625   4.322   8.177   9.580
16593SOL    HW154626   4.346   8.246   9.512
16593SOL    HW254627   4.244   8.210   9.634
16594SOL     OW54628   5.300   9.110   9.617
16594SOL    HW154629   5.389   9.156   9.620
16594SOL    HW254630   5.279   9.086   9.522
16595SOL     OW54631   3.800   8.259  10.099
16595SOL    HW154632   3.899   8.247  10.108
16595SOL    HW254633   3.776   8.354  10.120
16596SOL     OW54634   4.589   7.796   9.505
16596SOL    HW154635   4.648   7.859   9.456
16596SOL    HW254636   4.608   7.702   9.476
16597SOL     OW54637   5.086   8.592   9.855
16597SOL    HW154638   5.169   8.563   9.807
16597SOL    HW254639   5.037   8.659   9.799
16598SOL     OW54640   4.075   9.249  10.163
16598SOL    HW154641   4.125   9.163  10.169
16598SOL    HW254642   4.140   9.326  10.160
16599SOL     OW54643   4.835   9.224   9.547
16599SOL    HW154644   4.775   9.162   9.597
16599SOL    HW254645   4.866   9.180   9.462
16600SOL     OW54646   5.356   8.825   9.391
16600SOL    HW154647   5.324   8.919   9.381
16600SOL    HW254648   5.280   8.762   9.379
16601SOL     OW54649   4.188   9.191   9.633
16601SOL    HW154650   4.221   9.230   9.719
16601SOL    HW254651   4.264   9.184   9.568
16602SOL     OW54652   5.124   7.555   9.736
16602SOL    HW154653   5.100   7.518   9.646
16602SOL    HW254654   5.223   7.571   9.740
16603SOL     OW54655   4.106   8.148   9.790
16603SOL    HW154656   4.151   8.058   9.787
16603SOL    HW254657   4.012   8.137   9.823
16604SOL     OW54658   4.338   7.570   9.427
16604SOL    HW154659   4.436   7.548   9.434
16604SOL    HW254660   4.307   7.553   9.334
16605SOL     OW54661   5.158   8.636   9.351
16605SOL    HW154662   5.190   8.560   9.408
16605SOL    HW254663   5.066   8.663   9.381
16606SOL     OW54664   4.021   7.483   9.481
16606SOL    HW154665   4.070   7.567   9.460
16606SOL    HW254666   4.083   7.418   9.526
16607SOL     OW54667   4.659   7.684   9.790
16607SOL    HW154668   4.611   7.725   9.712
16607SOL    HW254669   4.758   7.682   9.771
16608SOL     OW54670   4.183   8.600  10.051
16608SOL    HW154671   4.112   8.573  10.116
16608SOL    HW254672   4.157   8.572   9.958
16609SOL     OW54673   4.995   9.245   9.901
16609SOL    HW154674   5.039   9.309   9.837
16609SOL    HW254675   4.945   9.297   9.971
16610SOL     OW54676   4.756   7.997   9.326
16610SOL    HW154677   4.715   8.079   9.287
16610SOL    HW254678   4.820   8.023   9.399
16611SOL     OW54679   4.590   7.902   9.952
16611SOL    HW154680   4.558   7.974   9.890
16611SOL    HW254681   4.614   7.821   9.899
16612SOL     OW54682   5.581   8.281   9.687
16612SOL    HW154683   5.623   8.217   9.751
16612SOL    HW254684   5.543   8.230   9.609
16613SOL     OW54685   4.212   8.833   9.484
16613SOL    HW154686   4.125   8.818   9.531
16613SOL    HW254687   4.195   8.859   9.389
16614SOL     OW54688   4.429   8.498   9.678
16614SOL    HW154689   4.415   8.505   9.777
16614SOL    HW254690   4.513   8.447   9.660
16615SOL     OW54691   4.091   8.548   9.811
16615SOL    HW154692   4.084   8.631   9.755
16615SOL    HW254693   4.095   8.468   9.751
16616SOL     OW54694   5.306   8.087   9.782
16616SOL    HW154695   5.275   8.148   9.855
16616SOL    HW254696   5.356   8.139   9.713
16617SOL     OW54697   5.264   7.722   9.435
16617SOL    HW154698   5.203   7.647   9.458
16617SOL    HW254699   5.286   7.774   9.518
16618SOL     OW54700   3.732   8.774   9.510
16618SOL    HW154701   3.639   8.795   9.479
16618SOL    HW254702   3.742   8.675   9.523
16619SOL     OW54703   4.539   8.020   9.635
16619SOL    HW154704   4.546   7.931   9.589
16619SOL    HW254705   4.445   8.054   9.627
16620SOL     OW54706   4.197   7.948   9.501
16620SOL    HW154707   4.258   8.028   9.505
16620SOL    HW254708   4.102   7.979   9.508
16621SOL     OW54709   5.450   7.583   9.833
16621SOL    HW154710   5.523   7.566   9.766
16621SOL    HW254711   5.419   7.496   9.871
16622SOL     OW54712   5.112   9.021   9.787
16622SOL    HW154713   5.179   9.033   9.713
16622SOL    HW254714   5.072   9.110   9.810
16623SOL     OW54715   4.396   9.064   9.464
16623SOL    HW154716   4.405   9.074   9.365
16623SOL    HW254717   4.356   8.975   9.485
16624SOL     OW54718   4.918   9.060   9.341
16624SOL    HW154719   4.924   8.967   9.378
16624SOL    HW254720   4.859   9.060   9.261
16625SOL     OW54721   5.228   9.055   9.354
16625SOL    HW154722   5.136   9.092   9.361
16625SOL    HW254723   5.266   9.075   9.264
16626SOL     OW54724   3.979   8.796   9.600
16626SOL    HW154725   3.883   8.797   9.573
16626SOL    HW254726   3.991   8.849   9.684
16627SOL     OW54727   3.799   7.793   9.343
16627SOL    HW154728   3.707   7.765   9.314
16627SOL    HW254729   3.830   7.870   9.287
16628SOL     OW54730   3.796   7.614   9.628
16628SOL    HW154731   3.779   7.697   9.574
16628SOL    HW254732   3.886   7.577   9.606
16629SOL     OW54733   4.907   8.783   9.429
16629SOL    HW154734   4.808   8.772   9.431
16629SOL    HW254735   4.941   8.798   9.522
16630SOL     OW54736   4.949   7.773   9.759
16630SOL    HW154737   5.014   7.699   9.748
16630SOL    HW254738   4.969   7.823   9.843
16631SOL     OW54739   4.318   8.193   9.962
16631SOL    HW154740   4.368   8.278   9.943
16631SOL    HW254741   4.230   8.195   9.914
16632SOL     OW54742   4.583   8.822   9.326
16632SOL    HW154743   4.537   8.837   9.414
16632SOL    HW254744   4.627   8.907   9.296
16633SOL     OW54745   3.803   8.688   9.963
16633SOL    HW154746   3.802   8.641  10.051
16633SOL    HW254747   3.885   8.660   9.912
16634SOL     OW54748   5.076   7.500   9.478
16634SOL    HW154749   5.111   7.459   9.394
16634SOL    HW254750   4.986   7.462   9.498
16635SOL     OW54751   3.949   9.585   0.996
16635SOL    HW154752   3.984   9.568   1.088
16635SOL    HW254753   3.861   9.540   0.984
16636SOL     OW54754   3.743   9.678   0.647
16636SOL    HW154755   3.661   9.721   0.686
16636SOL    HW254756   3.715   9.605   0.584
16637SOL     OW54757   5.479   9.917   0.231
16637SOL    HW154758   5.467   9.904   0.132
16637SOL    HW254759   5.449   9.836   0.280
16638SOL     OW54760   4.162   9.702   1.499
16638SOL    HW154761   4.244   9.646   1.508
16638SOL    HW254762   4.081   9.644   1.503
16639SOL     OW54763   5.318   9.424   1.480
16639SOL    HW154764   5.300   9.491   1.408
16639SOL    HW254765   5.315   9.470   1.569
16640SOL     OW54766   3.846   9.953   0.563
16640SOL    HW154767   3.801   9.865   0.580
16640SOL    HW254768   3.845  10.007   0.647
16641SOL     OW54769   4.533   9.314   0.502
16641SOL    HW154770   4.573   9.405   0.493
16641SOL    HW254771   4.433   9.322   0.508
16642SOL     OW54772   4.041   9.561   1.801
16642SOL    HW154773   4.112   9.632   1.807
16642SOL    HW254774   3.953   9.600   1.829
16643SOL     OW54775   5.005   9.655   0.944
16643SOL    HW154776   4.919   9.605   0.931
16643SOL    HW254777   5.067   9.601   1.000
16644SOL     OW54778   4.531   9.915   1.465
16644SOL    HW154779   4.484   9.912   1.554
16644SOL    HW254780   4.480   9.860   1.399
16645SOL     OW54781   5.118   9.779   1.674
16645SOL    HW154782   5.098   9.822   1.762
16645SOL    HW254783   5.196   9.717   1.683
16646SOL     OW54784   4.715   9.720   1.242
16646SOL    HW154785   4.638   9.754   1.296
16646SOL    HW254786   4.681   9.669   1.163
16647SOL     OW54787   4.765  10.011   0.429
16647SOL    HW154788   4.791  10.007   0.525
16647SOL    HW254789   4.680   9.960   0.415
16648SOL     OW54790   4.589   9.658   0.195
16648SOL    HW154791   4.648   9.721   0.146
16648SOL    HW254792   4.608   9.564   0.166
16649SOL     OW54793   5.443   9.895   1.831
16649SOL    HW154794   5.417   9.984   1.795
16649SOL    HW254795   5.441   9.827   1.758
16650SOL     OW54796   4.274   9.506   0.885
16650SOL    HW154797   4.269   9.501   0.985
16650SOL    HW254798   4.276   9.602   0.856
16651SOL     OW54799   3.926   9.595   1.498
16651SOL    HW154800   3.846   9.655   1.485
16651SOL    HW254801   3.916   9.546   1.584
16652SOL     OW54802   5.124   9.417   0.426
16652SOL    HW154803   5.100   9.380   0.336
16652SOL    HW254804   5.223   9.433   0.430
16653SOL     OW54805   5.271   9.532   1.729
16653SOL    HW154806   5.266   9.569   1.821
16653SOL    HW254807   5.199   9.463   1.717
16654SOL     OW54808   4.338   9.432   0.117
16654SOL    HW154809   4.436   9.410   0.124
16654SOL    HW254810   4.307   9.415   0.024
16655SOL     OW54811   4.505   9.574   1.749
16655SOL    HW154812   4.572   9.513   1.792
16655SOL    HW254813   4.432   9.593   1.814
16656SOL     OW54814   5.075   9.900   1.433
16656SOL    HW154815   5.103   9.857   1.518
16656SOL    HW254816   5.100   9.996   1.434
16657SOL     OW54817   4.646   9.813   0.899
16657SOL    HW154818   4.621   9.804   0.803
16657SOL    HW254819   4.694   9.731   0.930
16658SOL     OW54820   4.263   9.374   0.512
16658SOL    HW154821   4.182   9.375   0.570
16658SOL    HW254822   4.266   9.457   0.457
16659SOL     OW54823   4.659   9.546   0.480
16659SOL    HW154824   4.611   9.587   0.402
16659SOL    HW254825   4.758   9.544   0.461
16660SOL     OW54826   4.800   9.993   1.464
16660SOL    HW154827   4.720   9.932   1.467
16660SOL    HW254828   4.881   9.940   1.440
16661SOL     OW54829   4.756   9.859   0.016
16661SOL    HW154830   4.715   9.941  -0.023
16661SOL    HW254831   4.820   9.885   0.089
16662SOL     OW54832   4.285   9.532   1.147
16662SOL    HW154833   4.323   9.448   1.184
16662SOL    HW254834   4.197   9.551   1.191
16663SOL     OW54835   4.590   9.764   0.642
16663SOL    HW154836   4.558   9.836   0.580
16663SOL    HW254837   4.614   9.683   0.589
16664SOL     OW54838   4.741   9.349   0.753
16664SOL    HW154839   4.669   9.354   0.684
16664SOL    HW254840   4.717   9.280   0.822
16665SOL     OW54841   4.251   9.566   0.328
16665SOL    HW154842   4.278   9.507   0.253
16665SOL    HW254843   4.251   9.661   0.297
16666SOL     OW54844   4.639   9.399   1.402
16666SOL    HW154845   4.664   9.379   1.307
16666SOL    HW254846   4.711   9.455   1.444
16667SOL     OW54847   4.998   9.696   1.262
16667SOL    HW154848   5.019   9.770   1.326
16667SOL    HW254849   4.909   9.713   1.219
16668SOL     OW54850   4.290   9.847   0.865
16668SOL    HW154851   4.302   9.913   0.791
16668SOL    HW254852   4.336   9.881   0.948
16669SOL     OW54853   4.737   9.415   1.770
16669SOL    HW154854   4.743   9.500   1.718
16669SOL    HW254855   4.769   9.339   1.713
16670SOL     OW54856   4.228   9.360   1.740
16670SOL    HW154857   4.186   9.303   1.670
16670SOL    HW254858   4.162   9.429   1.772
16671SOL     OW54859   4.933   9.835   0.275
16671SOL    HW154860   4.946   9.751   0.329
16671SOL    HW254861   4.904   9.909   0.335
16672SOL     OW54862   4.031   9.523   1.231
16672SOL    HW154863   4.008   9.560   1.321
16672SOL    HW254864   4.001   9.428   1.225
16673SOL     OW54865   4.456   9.944   1.064
16673SOL    HW154866   4.515   9.918   0.988
16673SOL    HW254867   4.428  10.040   1.053
16674SOL     OW54868   4.031   9.373   0.618
16674SOL    HW154869   4.020   9.467   0.651
16674SOL    HW254870   4.026   9.310   0.695
16675SOL     OW54871   5.346   9.677   0.374
16675SOL    HW154872   5.348   9.601   0.438
16675SOL    HW254873   5.298   9.754   0.414
16676SOL     OW54874   5.264   9.584   0.125
16676SOL    HW154875   5.203   9.509   0.148
16676SOL    HW254876   5.286   9.636   0.208
16677SOL     OW54877   4.043  10.120   0.949
16677SOL    HW154878   4.136  10.156   0.954
16677SOL    HW254879   4.037  10.035   1.001
16678SOL     OW54880   4.063   9.819   1.006
16678SOL    HW154881   4.011   9.736   0.989
16678SOL    HW254882   4.140   9.824   0.942
16679SOL     OW54883   4.862   9.690   1.678
16679SOL    HW154884   4.817   9.753   1.742
16679SOL    HW254885   4.955   9.721   1.661
16680SOL     OW54886   4.884   9.517   1.477
16680SOL    HW154887   4.884   9.581   1.554
16680SOL    HW254888   4.912   9.565   1.394
16681SOL     OW54889   3.913   9.830   1.722
16681SOL    HW154890   3.972   9.790   1.652
16681SOL    HW254891   3.855   9.901   1.681
16682SOL     OW54892   4.539   9.882   0.325
16682SOL    HW154893   4.546   9.793   0.279
16682SOL    HW254894   4.445   9.916   0.317
16683SOL     OW54895   5.381   9.914   1.206
16683SOL    HW154896   5.343   9.845   1.268
16683SOL    HW254897   5.463   9.878   1.162
16684SOL     OW54898   4.395   9.774   1.269
16684SOL    HW154899   4.361   9.685   1.239
16684SOL    HW254900   4.421   9.828   1.189
16685SOL     OW54901   4.627   9.396   0.133
16685SOL    HW154902   4.678   9.397   0.047
16685SOL    HW254903   4.683   9.354   0.204
16686SOL     OW54904   5.450   9.445   0.523
16686SOL    HW154905   5.523   9.428   0.456
16686SOL    HW254906   5.419   9.358   0.561
16687SOL     OW54907   5.565   9.485   0.963
16687SOL    HW154908   5.604   9.400   0.927
16687SOL    HW254909   5.467   9.487   0.944
16688SOL     OW54910   3.987   9.636   0.720
16688SOL    HW154911   3.908   9.687   0.686
16688SOL    HW254912   3.978   9.621   0.818
16689SOL     OW54913   4.738   9.546   0.971
16689SOL    HW154914   4.730   9.510   0.878
16689SOL    HW254915   4.736   9.470   1.036
16690SOL     OW54916   5.433   9.695   1.381
16690SOL    HW154917   5.506   9.764   1.385
16690SOL    HW254918   5.461   9.620   1.322
16691SOL     OW54919   4.396   9.513   1.489
16691SOL    HW154920   4.486   9.497   1.449
16691SOL    HW254921   4.404   9.518   1.588
16692SOL     OW54922   3.799   9.655   0.033
16692SOL    HW154923   3.707   9.627   0.004
16692SOL    HW254924   3.830   9.732  -0.023
16693SOL     OW54925   3.796   9.476   0.318
16693SOL    HW154926   3.779   9.559   0.264
16693SOL    HW254927   3.886   9.439   0.296
16694SOL     OW54928   4.440   9.875   1.708
16694SOL    HW154929   4.459   9.940   1.782
16694SOL    HW254930   4.500   9.795   1.717
16695SOL     OW54931   4.949   9.635   0.449
16695SOL    HW154932   5.014   9.561   0.438
16695SOL    HW254933   4.969   9.685   0.533
16696SOL     OW54934   5.501   9.652   1.642
16696SOL    HW154935   5.484   9.683   1.548
16696SOL    HW254936   5.417   9.615   1.680
16697SOL     OW54937   4.807  10.294   0.087
16697SOL    HW154938   4.784  10.347   0.005
16697SOL    HW254939   4.888  10.238   0.068
16698SOL     OW54940   5.548   9.502   1.227
16698SOL    HW154941   5.544   9.412   1.271
16698SOL    HW254942   5.551   9.491   1.128
16699SOL     OW54943   4.152   9.734   0.520
16699SOL    HW154944   4.182   9.662   0.458
16699SOL    HW254945   4.113   9.694   0.603
16700SOL     OW54946   4.041   9.857   1.280
16700SOL    HW154947   4.079   9.798   1.352
16700SOL    HW254948   4.081   9.831   1.192
16701SOL     OW54949   5.148   9.524   1.112
16701SOL    HW154950   5.200   9.459   1.167
16701SOL    HW254951   5.099   9.587   1.173
16702SOL     OW54952   4.725   9.344   1.154
16702SOL    HW154953   4.662   9.272   1.123
16702SOL    HW254954   4.818   9.308   1.154
16703SOL     OW54955   5.076   9.362   0.168
16703SOL    HW154956   5.111   9.321   0.084
16703SOL    HW254957   4.986   9.324   0.188
16704SOL     OW54958   5.024   9.763   0.691
16704SOL    HW154959   4.965   9.843   0.695
16704SOL    HW254960   5.039   9.728   0.784
16705SOL     OW54961   5.317   9.531   0.882
16705SOL    HW154962   5.233   9.530   0.936
16705SOL    HW254963   5.319   9.614   0.826
16706SOL     OW54964   3.949   9.585   2.858
16706SOL    HW154965   3.984   9.568   2.950
16706SOL    HW254966   3.861   9.540   2.846
16707SOL     OW54967   3.743   9.678   2.509
16707SOL    HW154968   3.661   9.721   2.548
16707SOL    HW254969   3.715   9.605   2.446
16708SOL     OW54970   5.479   9.917   2.093
16708SOL    HW154971   5.467   9.904   1.994
16708SOL    HW254972   5.449   9.836   2.142
16709SOL     OW54973   4.162   9.702   3.361
16709SOL    HW154974   4.244   9.646   3.370
16709SOL    HW254975   4.081   9.644   3.365
16710SOL     OW54976   5.327   9.757   2.599
16710SOL    HW154977   5.253   9.803   2.549
16710SOL    HW254978   5.378   9.825   2.652
16711SOL     OW54979   5.318   9.424   3.342
16711SOL    HW154980   5.300   9.491   3.270
16711SOL    HW254981   5.315   9.470   3.431
16712SOL     OW54982   3.846   9.953   2.425
16712SOL    HW154983   3.801   9.865   2.442
16712SOL    HW254984   3.845  10.007   2.509
16713SOL     OW54985   4.533   9.314   2.364
16713SOL    HW154986   4.573   9.405   2.355
16713SOL    HW254987   4.433   9.322   2.370
16714SOL     OW54988   4.041   9.561   3.663
16714SOL    HW154989   4.112   9.632   3.669
16714SOL    HW254990   3.953   9.600   3.691
16715SOL     OW54991   5.005   9.655   2.806
16715SOL    HW154992   4.919   9.605   2.793
16715SOL    HW254993   5.067   9.601   2.862
16716SOL     OW54994   4.531   9.915   3.327
16716SOL    HW154995   4.484   9.912   3.416
16716SOL    HW254996   4.480   9.860   3.261
16717SOL     OW54997   5.118   9.779   3.536
16717SOL    HW154998   5.098   9.822   3.624
16717SOL    HW254999   5.196   9.717   3.545
16718SOL     OW55000   4.715   9.720   3.104
16718SOL    HW155001   4.638   9.754   3.158
16718SOL    HW255002   4.681   9.669   3.025
16719SOL     OW55003   4.765  10.011   2.291
16719SOL    HW155004   4.791  10.007   2.387
16719SOL    HW255005   4.680   9.960   2.277
16720SOL     OW55006   4.589   9.658   2.057
16720SOL    HW155007   4.648   9.721   2.008
16720SOL    HW255008   4.608   9.564   2.028
16721SOL     OW55009   5.443   9.895   3.693
16721SOL    HW155010   5.417   9.984   3.657
16721SOL    HW255011   5.441   9.827   3.620
16722SOL     OW55012   4.274   9.506   2.747
16722SOL    HW155013   4.269   9.501   2.847
16722SOL    HW255014   4.276   9.602   2.718
16723SOL     OW55015   5.182  10.045   2.590
16723SOL    HW155016   5.177   9.980   2.665
16723SOL    HW255017   5.262  10.104   2.603
16724SOL     OW55018   3.926   9.595   3.360
16724SOL    HW155019   3.846   9.655   3.347
16724SOL    HW255020   3.916   9.546   3.446
16725SOL     OW55021   5.124   9.417   2.288
16725SOL    HW155022   5.100   9.380   2.198
16725SOL    HW255023   5.223   9.433   2.292
16726SOL     OW55024   5.271   9.532   3.591
16726SOL    HW155025   5.266   9.569   3.683
16726SOL    HW255026   5.199   9.463   3.579
16727SOL     OW55027   4.338   9.432   1.979
16727SOL    HW155028   4.436   9.410   1.986
16727SOL    HW255029   4.307   9.415   1.886
16728SOL     OW55030   4.505   9.574   3.611
16728SOL    HW155031   4.572   9.513   3.654
16728SOL    HW255032   4.432   9.593   3.676
16729SOL     OW55033   5.075   9.900   3.295
16729SOL    HW155034   5.103   9.857   3.380
16729SOL    HW255035   5.100   9.996   3.296
16730SOL     OW55036   4.646   9.813   2.761
16730SOL    HW155037   4.621   9.804   2.665
16730SOL    HW255038   4.694   9.731   2.792
16731SOL     OW55039   4.263   9.374   2.374
16731SOL    HW155040   4.182   9.375   2.432
16731SOL    HW255041   4.266   9.457   2.319
16732SOL     OW55042   4.021   9.345   2.033
16732SOL    HW155043   4.070   9.429   2.012
16732SOL    HW255044   4.083   9.280   2.078
16733SOL     OW55045   4.659   9.546   2.342
16733SOL    HW155046   4.611   9.587   2.264
16733SOL    HW255047   4.758   9.544   2.323
16734SOL     OW55048   4.800   9.993   3.326
16734SOL    HW155049   4.720   9.932   3.329
16734SOL    HW255050   4.881   9.940   3.302
16735SOL     OW55051   4.756   9.859   1.878
16735SOL    HW155052   4.715   9.941   1.839
16735SOL    HW255053   4.820   9.885   1.951
16736SOL     OW55054   3.802   9.866   3.248
16736SOL    HW155055   3.894   9.865   3.207
16736SOL    HW255056   3.796   9.940   3.315
16737SOL     OW55057   4.285   9.532   3.009
16737SOL    HW155058   4.323   9.448   3.046
16737SOL    HW255059   4.197   9.551   3.053
16738SOL     OW55060   4.590   9.764   2.504
16738SOL    HW155061   4.558   9.836   2.442
16738SOL    HW255062   4.614   9.683   2.451
16739SOL     OW55063   4.741   9.349   2.615
16739SOL    HW155064   4.669   9.354   2.546
16739SOL    HW255065   4.717   9.280   2.684
16740SOL     OW55066   5.190   9.900   2.854
16740SOL    HW155067   5.160   9.805   2.861
16740SOL    HW255068   5.263   9.916   2.920
16741SOL     OW55069   4.251   9.566   2.190
16741SOL    HW155070   4.278   9.507   2.115
16741SOL    HW255071   4.251   9.661   2.159
16742SOL     OW55072   4.639   9.399   3.264
16742SOL    HW155073   4.664   9.379   3.169
16742SOL    HW255074   4.711   9.455   3.306
16743SOL     OW55075   4.998   9.696   3.124
16743SOL    HW155076   5.019   9.770   3.188
16743SOL    HW255077   4.909   9.713   3.081
16744SOL     OW55078   4.290   9.847   2.727
16744SOL    HW155079   4.302   9.913   2.653
16744SOL    HW255080   4.336   9.881   2.810
16745SOL     OW55081   5.306   9.949   2.334
16745SOL    HW155082   5.275  10.010   2.407
16745SOL    HW255083   5.356  10.001   2.265
16746SOL     OW55084   4.737   9.415   3.632
16746SOL    HW155085   4.743   9.500   3.580
16746SOL    HW255086   4.769   9.339   3.575
16747SOL     OW55087   4.228   9.360   3.602
16747SOL    HW155088   4.186   9.303   3.532
16747SOL    HW255089   4.162   9.429   3.634
16748SOL     OW55090   4.933   9.835   2.137
16748SOL    HW155091   4.946   9.751   2.191
16748SOL    HW255092   4.904   9.909   2.197
16749SOL     OW55093   4.031   9.523   3.093
16749SOL    HW155094   4.008   9.560   3.183
16749SOL    HW255095   4.001   9.428   3.087
16750SOL     OW55096   4.456   9.944   2.926
16750SOL    HW155097   4.515   9.918   2.850
16750SOL    HW255098   4.428  10.040   2.915
16751SOL     OW55099   4.031   9.373   2.480
16751SOL    HW155100   4.020   9.467   2.513
16751SOL    HW255101   4.026   9.310   2.557
16752SOL     OW55102   5.346   9.677   2.236
16752SOL    HW155103   5.348   9.601   2.300
16752SOL    HW255104   5.298   9.754   2.276
16753SOL     OW55105   5.264   9.584   1.987
16753SOL    HW155106   5.203   9.509   2.010
16753SOL    HW255107   5.286   9.636   2.070
16754SOL     OW55108   4.043  10.120   2.811
16754SOL    HW155109   4.136  10.156   2.816
16754SOL    HW255110   4.037  10.035   2.863
16755SOL     OW55111   4.063   9.819   2.868
16755SOL    HW155112   4.011   9.736   2.851
16755SOL    HW255113   4.140   9.824   2.804
16756SOL     OW55114   4.862   9.690   3.540
16756SOL    HW155115   4.817   9.753   3.604
16756SOL    HW255116   4.955   9.721   3.523
16757SOL     OW55117   4.884   9.517   3.339
16757SOL    HW155118   4.884   9.581   3.416
16757SOL    HW255119   4.912   9.565   3.256
16758SOL     OW55120   3.764   9.854   2.976
16758SOL    HW155121   3.849   9.821   2.935
16758SOL    HW255122   3.777   9.869   3.074
16759SOL     OW55123   3.913   9.830   3.584
16759SOL    HW155124   3.972   9.790   3.514
16759SOL    HW255125   3.855   9.901   3.543
16760SOL     OW55126   4.539   9.882   2.187
16760SOL    HW155127   4.546   9.793   2.141
16760SOL    HW255128   4.445   9.916   2.179
16761SOL     OW55129   5.381   9.914   3.068
16761SOL    HW155130   5.343   9.845   3.130
16761SOL    HW255131   5.463   9.878   3.024
16762SOL     OW55132   4.395   9.774   3.131
16762SOL    HW155133   4.361   9.685   3.101
16762SOL    HW255134   4.421   9.828   3.051
16763SOL     OW55135   5.450   9.445   2.385
16763SOL    HW155136   5.523   9.428   2.318
16763SOL    HW255137   5.419   9.358   2.423
16764SOL     OW55138   5.565   9.485   2.825
16764SOL    HW155139   5.604   9.400   2.789
16764SOL    HW255140   5.467   9.487   2.806
16765SOL     OW55141   3.987   9.636   2.582
16765SOL    HW155142   3.908   9.687   2.548
16765SOL    HW255143   3.978   9.621   2.680
16766SOL     OW55144   4.738   9.546   2.833
16766SOL    HW155145   4.730   9.510   2.740
16766SOL    HW255146   4.736   9.470   2.898
16767SOL     OW55147   5.433   9.695   3.243
16767SOL    HW155148   5.506   9.764   3.247
16767SOL    HW255149   5.461   9.620   3.184
16768SOL     OW55150   4.396   9.513   3.351
16768SOL    HW155151   4.486   9.497   3.311
16768SOL    HW255152   4.404   9.518   3.450
16769SOL     OW55153   3.799   9.655   1.895
16769SOL    HW155154   3.707   9.627   1.866
16769SOL    HW255155   3.830   9.732   1.839
16770SOL     OW55156   3.796   9.476   2.180
16770SOL    HW155157   3.779   9.559   2.126
16770SOL    HW255158   3.886   9.439   2.158
16771SOL     OW55159   4.440   9.875   3.570
16771SOL    HW155160   4.459   9.940   3.644
16771SOL    HW255161   4.500   9.795   3.579
16772SOL     OW55162   4.949   9.635   2.311
16772SOL    HW155163   5.014   9.561   2.300
16772SOL    HW255164   4.969   9.685   2.395
16773SOL     OW55165   5.501   9.652   3.504
16773SOL    HW155166   5.484   9.683   3.410
16773SOL    HW255167   5.417   9.615   3.542
16774SOL     OW55168   4.807  10.294   1.949
16774SOL    HW155169   4.784  10.347   1.867
16774SOL    HW255170   4.888  10.238   1.930
16775SOL     OW55171   5.548   9.502   3.089
16775SOL    HW155172   5.544   9.412   3.133
16775SOL    HW255173   5.551   9.491   2.990
16776SOL     OW55174   4.152   9.734   2.382
16776SOL    HW155175   4.182   9.662   2.320
16776SOL    HW255176   4.113   9.694   2.465
16777SOL     OW55177   4.041   9.857   3.142
16777SOL    HW155178   4.079   9.798   3.214
16777SOL    HW255179   4.081   9.831   3.054
16778SOL     OW55180   5.148   9.524   2.974
16778SOL    HW155181   5.200   9.459   3.029
16778SOL    HW255182   5.099   9.587   3.035
16779SOL     OW55183   4.725   9.344   3.016
16779SOL    HW155184   4.662   9.272   2.985
16779SOL    HW255185   4.818   9.308   3.016
16780SOL     OW55186   5.076   9.362   2.030
16780SOL    HW155187   5.111   9.321   1.946
16780SOL    HW255188   4.986   9.324   2.050
16781SOL     OW55189   5.024   9.763   2.553
16781SOL    HW155190   4.965   9.843   2.557
16781SOL    HW255191   5.039   9.728   2.646
16782SOL     OW55192   5.317   9.531   2.744
16782SOL    HW155193   5.233   9.530   2.798
16782SOL    HW255194   5.319   9.614   2.688
16783SOL     OW55195   3.949   9.585   4.720
16783SOL    HW155196   3.984   9.568   4.812
16783SOL    HW255197   3.861   9.540   4.708
16784SOL     OW55198   3.743   9.678   4.371
16784SOL    HW155199   3.661   9.721   4.410
16784SOL    HW255200   3.715   9.605   4.308
16785SOL     OW55201   4.162   9.702   5.223
16785SOL    HW155202   4.244   9.646   5.232
16785SOL    HW255203   4.081   9.644   5.227
16786SOL     OW55204   5.318   9.424   5.204
16786SOL    HW155205   5.300   9.491   5.132
16786SOL    HW255206   5.315   9.470   5.293
16787SOL     OW55207   3.846   9.953   4.287
16787SOL    HW155208   3.801   9.865   4.304
16787SOL    HW255209   3.845  10.007   4.371
16788SOL     OW55210   4.533   9.314   4.226
16788SOL    HW155211   4.573   9.405   4.217
16788SOL    HW255212   4.433   9.322   4.232
16789SOL     OW55213   4.041   9.561   5.525
16789SOL    HW155214   4.112   9.632   5.531
16789SOL    HW255215   3.953   9.600   5.553
16790SOL     OW55216   5.005   9.655   4.668
16790SOL    HW155217   4.919   9.605   4.655
16790SOL    HW255218   5.067   9.601   4.724
16791SOL     OW55219   4.531   9.915   5.189
16791SOL    HW155220   4.484   9.912   5.278
16791SOL    HW255221   4.480   9.860   5.123
16792SOL     OW55222   5.118   9.779   5.398
16792SOL    HW155223   5.098   9.822   5.486
16792SOL    HW255224   5.196   9.717   5.407
16793SOL     OW55225   4.715   9.720   4.966
16793SOL    HW155226   4.638   9.754   5.020
16793SOL    HW255227   4.681   9.669   4.887
16794SOL     OW55228   4.765  10.011   4.153
16794SOL    HW155229   4.791  10.007   4.249
16794SOL    HW255230   4.680   9.960   4.139
16795SOL     OW55231   4.589   9.658   3.919
16795SOL    HW155232   4.648   9.721   3.870
16795SOL    HW255233   4.608   9.564   3.890
16796SOL     OW55234   5.443   9.895   5.555
16796SOL    HW155235   5.417   9.984   5.519
16796SOL    HW255236   5.441   9.827   5.482
16797SOL     OW55237   4.274   9.506   4.609
16797SOL    HW155238   4.269   9.501   4.709
16797SOL    HW255239   4.276   9.602   4.580
16798SOL     OW55240   3.926   9.595   5.222
16798SOL    HW155241   3.846   9.655   5.209
16798SOL    HW255242   3.916   9.546   5.308
16799SOL     OW55243   5.124   9.417   4.150
16799SOL    HW155244   5.100   9.380   4.060
16799SOL    HW255245   5.223   9.433   4.154
16800SOL     OW55246   5.271   9.532   5.453
16800SOL    HW155247   5.266   9.569   5.545
16800SOL    HW255248   5.199   9.463   5.441
16801SOL     OW55249   4.338   9.432   3.841
16801SOL    HW155250   4.436   9.410   3.848
16801SOL    HW255251   4.307   9.415   3.748
16802SOL     OW55252   4.505   9.574   5.473
16802SOL    HW155253   4.572   9.513   5.516
16802SOL    HW255254   4.432   9.593   5.538
16803SOL     OW55255   4.646   9.813   4.623
16803SOL    HW155256   4.621   9.804   4.527
16803SOL    HW255257   4.694   9.731   4.654
16804SOL     OW55258   4.263   9.374   4.236
16804SOL    HW155259   4.182   9.375   4.294
16804SOL    HW255260   4.266   9.457   4.181
16805SOL     OW55261   4.021   9.345   3.895
16805SOL    HW155262   4.070   9.429   3.874
16805SOL    HW255263   4.083   9.280   3.940
16806SOL     OW55264   4.659   9.546   4.204
16806SOL    HW155265   4.611   9.587   4.126
16806SOL    HW255266   4.758   9.544   4.185
16807SOL     OW55267   4.800   9.993   5.188
16807SOL    HW155268   4.720   9.932   5.191
16807SOL    HW255269   4.881   9.940   5.164
16808SOL     OW55270   4.756   9.859   3.740
16808SOL    HW155271   4.715   9.941   3.701
16808SOL    HW255272   4.820   9.885   3.813
16809SOL     OW55273   3.802   9.866   5.110
16809SOL    HW155274   3.894   9.865   5.069
16809SOL    HW255275   3.796   9.940   5.177
16810SOL     OW55276   4.285   9.532   4.871
16810SOL    HW155277   4.323   9.448   4.908
16810SOL    HW255278   4.197   9.551   4.915
16811SOL     OW55279   4.590   9.764   4.366
16811SOL    HW155280   4.558   9.836   4.304
16811SOL    HW255281   4.614   9.683   4.313
16812SOL     OW55282   4.741   9.349   4.477
16812SOL    HW155283   4.669   9.354   4.408
16812SOL    HW255284   4.717   9.280   4.546
16813SOL     OW55285   4.251   9.566   4.052
16813SOL    HW155286   4.278   9.507   3.977
16813SOL    HW255287   4.251   9.661   4.021
16814SOL     OW55288   4.639   9.399   5.126
16814SOL    HW155289   4.664   9.379   5.031
16814SOL    HW255290   4.711   9.455   5.168
16815SOL     OW55291   4.998   9.696   4.986
16815SOL    HW155292   5.019   9.770   5.050
16815SOL    HW255293   4.909   9.713   4.943
16816SOL     OW55294   4.737   9.415   5.494
16816SOL    HW155295   4.743   9.500   5.442
16816SOL    HW255296   4.769   9.339   5.437
16817SOL     OW55297   4.228   9.360   5.464
16817SOL    HW155298   4.186   9.303   5.394
16817SOL    HW255299   4.162   9.429   5.496
16818SOL     OW55300   4.933   9.835   3.999
16818SOL    HW155301   4.946   9.751   4.053
16818SOL    HW255302   4.904   9.909   4.059
16819SOL     OW55303   4.031   9.523   4.955
16819SOL    HW155304   4.008   9.560   5.045
16819SOL    HW255305   4.001   9.428   4.949
16820SOL     OW55306   4.031   9.373   4.342
16820SOL    HW155307   4.020   9.467   4.375
16820SOL    HW255308   4.026   9.310   4.419
16821SOL     OW55309   5.346   9.677   4.098
16821SOL    HW155310   5.348   9.601   4.162
16821SOL    HW255311   5.298   9.754   4.138
16822SOL     OW55312   5.264   9.584   3.849
16822SOL    HW155313   5.203   9.509   3.872
16822SOL    HW255314   5.286   9.636   3.932
16823SOL     OW55315   4.043  10.120   4.673
16823SOL    HW155316   4.136  10.156   4.678
16823SOL    HW255317   4.037  10.035   4.725
16824SOL     OW55318   4.063   9.819   4.730
16824SOL    HW155319   4.011   9.736   4.713
16824SOL    HW255320   4.140   9.824   4.666
16825SOL     OW55321   4.862   9.690   5.402
16825SOL    HW155322   4.817   9.753   5.466
16825SOL    HW255323   4.955   9.721   5.385
16826SOL     OW55324   4.884   9.517   5.201
16826SOL    HW155325   4.884   9.581   5.278
16826SOL    HW255326   4.912   9.565   5.118
16827SOL     OW55327   3.764   9.854   4.838
16827SOL    HW155328   3.849   9.821   4.797
16827SOL    HW255329   3.777   9.869   4.936
16828SOL     OW55330   3.913   9.830   5.446
16828SOL    HW155331   3.972   9.790   5.376
16828SOL    HW255332   3.855   9.901   5.405
16829SOL     OW55333   4.539   9.882   4.049
16829SOL    HW155334   4.546   9.793   4.003
16829SOL    HW255335   4.445   9.916   4.041
16830SOL     OW55336   5.450   9.445   4.247
16830SOL    HW155337   5.523   9.428   4.180
16830SOL    HW255338   5.419   9.358   4.285
16831SOL     OW55339   5.565   9.485   4.687
16831SOL    HW155340   5.604   9.400   4.651
16831SOL    HW255341   5.467   9.487   4.668
16832SOL     OW55342   3.987   9.636   4.444
16832SOL    HW155343   3.908   9.687   4.410
16832SOL    HW255344   3.978   9.621   4.542
16833SOL     OW55345   4.738   9.546   4.695
16833SOL    HW155346   4.730   9.510   4.602
16833SOL    HW255347   4.736   9.470   4.760
16834SOL     OW55348   5.433   9.695   5.105
16834SOL    HW155349   5.506   9.764   5.109
16834SOL    HW255350   5.461   9.620   5.046
16835SOL     OW55351   4.396   9.513   5.213
16835SOL    HW155352   4.486   9.497   5.173
16835SOL    HW255353   4.404   9.518   5.312
16836SOL     OW55354   3.799   9.655   3.757
16836SOL    HW155355   3.707   9.627   3.728
16836SOL    HW255356   3.830   9.732   3.701
16837SOL     OW55357   3.796   9.476   4.042
16837SOL    HW155358   3.779   9.559   3.988
16837SOL    HW255359   3.886   9.439   4.020
16838SOL     OW55360   4.949   9.635   4.173
16838SOL    HW155361   5.014   9.561   4.162
16838SOL    HW255362   4.969   9.685   4.257
16839SOL     OW55363   5.501   9.652   5.366
16839SOL    HW155364   5.484   9.683   5.272
16839SOL    HW255365   5.417   9.615   5.404
16840SOL     OW55366   4.807  10.294   3.811
16840SOL    HW155367   4.784  10.347   3.729
16840SOL    HW255368   4.888  10.238   3.792
16841SOL     OW55369   5.548   9.502   4.951
16841SOL    HW155370   5.544   9.412   4.995
16841SOL    HW255371   5.551   9.491   4.852
16842SOL     OW55372   4.152   9.734   4.244
16842SOL    HW155373   4.182   9.662   4.182
16842SOL    HW255374   4.113   9.694   4.327
16843SOL     OW55375   4.041   9.857   5.004
16843SOL    HW155376   4.079   9.798   5.076
16843SOL    HW255377   4.081   9.831   4.916
16844SOL     OW55378   4.725   9.344   4.878
16844SOL    HW155379   4.662   9.272   4.847
16844SOL    HW255380   4.818   9.308   4.878
16845SOL     OW55381   5.076   9.362   3.892
16845SOL    HW155382   5.111   9.321   3.808
16845SOL    HW255383   4.986   9.324   3.912
16846SOL     OW55384   5.024   9.763   4.415
16846SOL    HW155385   4.965   9.843   4.419
16846SOL    HW255386   5.039   9.728   4.508
16847SOL     OW55387   3.949   9.585   6.582
16847SOL    HW155388   3.984   9.568   6.674
16847SOL    HW255389   3.861   9.540   6.570
16848SOL     OW55390   3.743   9.678   6.233
16848SOL    HW155391   3.661   9.721   6.272
16848SOL    HW255392   3.715   9.605   6.170
16849SOL     OW55393   5.479   9.917   5.817
16849SOL    HW155394   5.467   9.904   5.718
16849SOL    HW255395   5.449   9.836   5.866
16850SOL     OW55396   4.162   9.702   7.085
16850SOL    HW155397   4.244   9.646   7.094
16850SOL    HW255398   4.081   9.644   7.089
16851SOL     OW55399   5.327   9.757   6.323
16851SOL    HW155400   5.253   9.803   6.273
16851SOL    HW255401   5.378   9.825   6.376
16852SOL     OW55402   5.318   9.424   7.066
16852SOL    HW155403   5.300   9.491   6.994
16852SOL    HW255404   5.315   9.470   7.155
16853SOL     OW55405   3.846   9.953   6.149
16853SOL    HW155406   3.801   9.865   6.166
16853SOL    HW255407   3.845  10.007   6.233
16854SOL     OW55408   4.533   9.314   6.088
16854SOL    HW155409   4.573   9.405   6.079
16854SOL    HW255410   4.433   9.322   6.094
16855SOL     OW55411   4.041   9.561   7.387
16855SOL    HW155412   4.112   9.632   7.393
16855SOL    HW255413   3.953   9.600   7.415
16856SOL     OW55414   5.005   9.655   6.530
16856SOL    HW155415   4.919   9.605   6.517
16856SOL    HW255416   5.067   9.601   6.586
16857SOL     OW55417   4.531   9.915   7.051
16857SOL    HW155418   4.484   9.912   7.140
16857SOL    HW255419   4.480   9.860   6.985
16858SOL     OW55420   5.118   9.779   7.260
16858SOL    HW155421   5.098   9.822   7.348
16858SOL    HW255422   5.196   9.717   7.269
16859SOL     OW55423   4.715   9.720   6.828
16859SOL    HW155424   4.638   9.754   6.882
16859SOL    HW255425   4.681   9.669   6.749
16860SOL     OW55426   4.589   9.658   5.781
16860SOL    HW155427   4.648   9.721   5.732
16860SOL    HW255428   4.608   9.564   5.752
16861SOL     OW55429   4.274   9.506   6.471
16861SOL    HW155430   4.269   9.501   6.571
16861SOL    HW255431   4.276   9.602   6.442
16862SOL     OW55432   5.182  10.045   6.314
16862SOL    HW155433   5.177   9.980   6.389
16862SOL    HW255434   5.262  10.104   6.327
16863SOL     OW55435   3.926   9.595   7.084
16863SOL    HW155436   3.846   9.655   7.071
16863SOL    HW255437   3.916   9.546   7.170
16864SOL     OW55438   5.271   9.532   7.315
16864SOL    HW155439   5.266   9.569   7.407
16864SOL    HW255440   5.199   9.463   7.303
16865SOL     OW55441   4.338   9.432   5.703
16865SOL    HW155442   4.436   9.410   5.710
16865SOL    HW255443   4.307   9.415   5.610
16866SOL     OW55444   4.505   9.574   7.335
16866SOL    HW155445   4.572   9.513   7.378
16866SOL    HW255446   4.432   9.593   7.400
16867SOL     OW55447   5.075   9.900   7.019
16867SOL    HW155448   5.103   9.857   7.104
16867SOL    HW255449   5.100   9.996   7.020
16868SOL     OW55450   4.646   9.813   6.485
16868SOL    HW155451   4.621   9.804   6.389
16868SOL    HW255452   4.694   9.731   6.516
16869SOL     OW55453   4.263   9.374   6.098
16869SOL    HW155454   4.182   9.375   6.156
16869SOL    HW255455   4.266   9.457   6.043
16870SOL     OW55456   4.021   9.345   5.757
16870SOL    HW155457   4.070   9.429   5.736
16870SOL    HW255458   4.083   9.280   5.802
16871SOL     OW55459   4.800   9.993   7.050
16871SOL    HW155460   4.720   9.932   7.053
16871SOL    HW255461   4.881   9.940   7.026
16872SOL     OW55462   3.802   9.866   6.972
16872SOL    HW155463   3.894   9.865   6.931
16872SOL    HW255464   3.796   9.940   7.039
16873SOL     OW55465   4.285   9.532   6.733
16873SOL    HW155466   4.323   9.448   6.770
16873SOL    HW255467   4.197   9.551   6.777
16874SOL     OW55468   4.590   9.764   6.228
16874SOL    HW155469   4.558   9.836   6.166
16874SOL    HW255470   4.614   9.683   6.175
16875SOL     OW55471   4.741   9.349   6.339
16875SOL    HW155472   4.669   9.354   6.270
16875SOL    HW255473   4.717   9.280   6.408
16876SOL     OW55474   4.251   9.566   5.914
16876SOL    HW155475   4.278   9.507   5.839
16876SOL    HW255476   4.251   9.661   5.883
16877SOL     OW55477   4.639   9.399   6.988
16877SOL    HW155478   4.664   9.379   6.893
16877SOL    HW255479   4.711   9.455   7.030
16878SOL     OW55480   4.998   9.696   6.848
16878SOL    HW155481   5.019   9.770   6.912
16878SOL    HW255482   4.909   9.713   6.805
16879SOL     OW55483   4.290   9.847   6.451
16879SOL    HW155484   4.302   9.913   6.377
16879SOL    HW255485   4.336   9.881   6.534
16880SOL     OW55486   5.306   9.949   6.058
16880SOL    HW155487   5.275  10.010   6.131
16880SOL    HW255488   5.356  10.001   5.989
16881SOL     OW55489   4.737   9.415   7.356
16881SOL    HW155490   4.743   9.500   7.304
16881SOL    HW255491   4.769   9.339   7.299
16882SOL     OW55492   4.228   9.360   7.326
16882SOL    HW155493   4.186   9.303   7.256
16882SOL    HW255494   4.162   9.429   7.358
16883SOL     OW55495   4.031   9.523   6.817
16883SOL    HW155496   4.008   9.560   6.907
16883SOL    HW255497   4.001   9.428   6.811
16884SOL     OW55498   4.456   9.944   6.650
16884SOL    HW155499   4.515   9.918   6.574
16884SOL    HW255500   4.428  10.040   6.639
16885SOL     OW55501   4.031   9.373   6.204
16885SOL    HW155502   4.020   9.467   6.237
16885SOL    HW255503   4.026   9.310   6.281
16886SOL     OW55504   5.346   9.677   5.960
16886SOL    HW155505   5.348   9.601   6.024
16886SOL    HW255506   5.298   9.754   6.000
16887SOL     OW55507   5.264   9.584   5.711
16887SOL    HW155508   5.203   9.509   5.734
16887SOL    HW255509   5.286   9.636   5.794
16888SOL     OW55510   4.043  10.120   6.535
16888SOL    HW155511   4.136  10.156   6.540
16888SOL    HW255512   4.037  10.035   6.587
16889SOL     OW55513   4.063   9.819   6.592
16889SOL    HW155514   4.011   9.736   6.575
16889SOL    HW255515   4.140   9.824   6.528
16890SOL     OW55516   4.862   9.690   7.264
16890SOL    HW155517   4.817   9.753   7.328
16890SOL    HW255518   4.955   9.721   7.247
16891SOL     OW55519   4.884   9.517   7.063
16891SOL    HW155520   4.884   9.581   7.140
16891SOL    HW255521   4.912   9.565   6.980
16892SOL     OW55522   3.764   9.854   6.700
16892SOL    HW155523   3.849   9.821   6.659
16892SOL    HW255524   3.777   9.869   6.798
16893SOL     OW55525   3.913   9.830   7.308
16893SOL    HW155526   3.972   9.790   7.238
16893SOL    HW255527   3.855   9.901   7.267
16894SOL     OW55528   4.395   9.774   6.855
16894SOL    HW155529   4.361   9.685   6.825
16894SOL    HW255530   4.421   9.828   6.775
16895SOL     OW55531   5.450   9.445   6.109
16895SOL    HW155532   5.523   9.428   6.042
16895SOL    HW255533   5.419   9.358   6.147
16896SOL     OW55534   5.565   9.485   6.549
16896SOL    HW155535   5.604   9.400   6.513
16896SOL    HW255536   5.467   9.487   6.530
16897SOL     OW55537   3.987   9.636   6.306
16897SOL    HW155538   3.908   9.687   6.272
16897SOL    HW255539   3.978   9.621   6.404
16898SOL     OW55540   4.738   9.546   6.557
16898SOL    HW155541   4.730   9.510   6.464
16898SOL    HW255542   4.736   9.470   6.622
16899SOL     OW55543   5.433   9.695   6.967
16899SOL    HW155544   5.506   9.764   6.971
16899SOL    HW255545   5.461   9.620   6.908
16900SOL     OW55546   4.396   9.513   7.075
16900SOL    HW155547   4.486   9.497   7.035
16900SOL    HW255548   4.404   9.518   7.174
16901SOL     OW55549   3.799   9.655   5.619
16901SOL    HW155550   3.707   9.627   5.590
16901SOL    HW255551   3.830   9.732   5.563
16902SOL     OW55552   3.796   9.476   5.904
16902SOL    HW155553   3.779   9.559   5.850
16902SOL    HW255554   3.886   9.439   5.882
16903SOL     OW55555   4.440   9.875   7.294
16903SOL    HW155556   4.459   9.940   7.368
16903SOL    HW255557   4.500   9.795   7.303
16904SOL     OW55558   5.548   9.502   6.813
16904SOL    HW155559   5.544   9.412   6.857
16904SOL    HW255560   5.551   9.491   6.714
16905SOL     OW55561   4.152   9.734   6.106
16905SOL    HW155562   4.182   9.662   6.044
16905SOL    HW255563   4.113   9.694   6.189
16906SOL     OW55564   4.041   9.857   6.866
16906SOL    HW155565   4.079   9.798   6.938
16906SOL    HW255566   4.081   9.831   6.778
16907SOL     OW55567   5.148   9.524   6.698
16907SOL    HW155568   5.200   9.459   6.753
16907SOL    HW255569   5.099   9.587   6.759
16908SOL     OW55570   4.725   9.344   6.740
16908SOL    HW155571   4.662   9.272   6.709
16908SOL    HW255572   4.818   9.308   6.740
16909SOL     OW55573   5.024   9.763   6.277
16909SOL    HW155574   4.965   9.843   6.281
16909SOL    HW255575   5.039   9.728   6.370
16910SOL     OW55576   5.317   9.531   6.468
16910SOL    HW155577   5.233   9.530   6.522
16910SOL    HW255578   5.319   9.614   6.412
16911SOL     OW55579   3.949   9.585   8.444
16911SOL    HW155580   3.984   9.568   8.536
16911SOL    HW255581   3.861   9.540   8.432
16912SOL     OW55582   3.743   9.678   8.095
16912SOL    HW155583   3.661   9.721   8.134
16912SOL    HW255584   3.715   9.605   8.032
16913SOL     OW55585   4.162   9.702   8.947
16913SOL    HW155586   4.244   9.646   8.956
16913SOL    HW255587   4.081   9.644   8.951
16914SOL     OW55588   5.327   9.757   8.185
16914SOL    HW155589   5.253   9.803   8.135
16914SOL    HW255590   5.378   9.825   8.238
16915SOL     OW55591   5.318   9.424   8.928
16915SOL    HW155592   5.300   9.491   8.856
16915SOL    HW255593   5.315   9.470   9.017
16916SOL     OW55594   3.846   9.953   8.011
16916SOL    HW155595   3.801   9.865   8.028
16916SOL    HW255596   3.845  10.007   8.095
16917SOL     OW55597   4.533   9.314   7.950
16917SOL    HW155598   4.573   9.405   7.941
16917SOL    HW255599   4.433   9.322   7.956
16918SOL     OW55600   5.005   9.655   8.392
16918SOL    HW155601   4.919   9.605   8.379
16918SOL    HW255602   5.067   9.601   8.448
16919SOL     OW55603   4.531   9.915   8.913
16919SOL    HW155604   4.484   9.912   9.002
16919SOL    HW255605   4.480   9.860   8.847
16920SOL     OW55606   5.118   9.779   9.122
16920SOL    HW155607   5.098   9.822   9.210
16920SOL    HW255608   5.196   9.717   9.131
16921SOL     OW55609   4.715   9.720   8.690
16921SOL    HW155610   4.638   9.754   8.744
16921SOL    HW255611   4.681   9.669   8.611
16922SOL     OW55612   4.589   9.658   7.643
16922SOL    HW155613   4.648   9.721   7.594
16922SOL    HW255614   4.608   9.564   7.614
16923SOL     OW55615   5.443   9.895   9.279
16923SOL    HW155616   5.417   9.984   9.243
16923SOL    HW255617   5.441   9.827   9.206
16924SOL     OW55618   4.274   9.506   8.333
16924SOL    HW155619   4.269   9.501   8.433
16924SOL    HW255620   4.276   9.602   8.304
16925SOL     OW55621   5.182  10.045   8.176
16925SOL    HW155622   5.177   9.980   8.251
16925SOL    HW255623   5.262  10.104   8.189
16926SOL     OW55624   5.124   9.417   7.874
16926SOL    HW155625   5.100   9.380   7.784
16926SOL    HW255626   5.223   9.433   7.878
16927SOL     OW55627   5.271   9.532   9.177
16927SOL    HW155628   5.266   9.569   9.269
16927SOL    HW255629   5.199   9.463   9.165
16928SOL     OW55630   4.338   9.432   7.565
16928SOL    HW155631   4.436   9.410   7.572
16928SOL    HW255632   4.307   9.415   7.472
16929SOL     OW55633   4.505   9.574   9.197
16929SOL    HW155634   4.572   9.513   9.240
16929SOL    HW255635   4.432   9.593   9.262
16930SOL     OW55636   5.075   9.900   8.881
16930SOL    HW155637   5.103   9.857   8.966
16930SOL    HW255638   5.100   9.996   8.882
16931SOL     OW55639   4.646   9.813   8.347
16931SOL    HW155640   4.621   9.804   8.251
16931SOL    HW255641   4.694   9.731   8.378
16932SOL     OW55642   4.263   9.374   7.960
16932SOL    HW155643   4.182   9.375   8.018
16932SOL    HW255644   4.266   9.457   7.905
16933SOL     OW55645   4.021   9.345   7.619
16933SOL    HW155646   4.070   9.429   7.598
16933SOL    HW255647   4.083   9.280   7.664
16934SOL     OW55648   4.659   9.546   7.928
16934SOL    HW155649   4.611   9.587   7.850
16934SOL    HW255650   4.758   9.544   7.909
16935SOL     OW55651   4.800   9.993   8.912
16935SOL    HW155652   4.720   9.932   8.915
16935SOL    HW255653   4.881   9.940   8.888
16936SOL     OW55654   4.756   9.859   7.464
16936SOL    HW155655   4.715   9.941   7.425
16936SOL    HW255656   4.820   9.885   7.537
16937SOL     OW55657   3.802   9.866   8.834
16937SOL    HW155658   3.894   9.865   8.793
16937SOL    HW255659   3.796   9.940   8.901
16938SOL     OW55660   4.285   9.532   8.595
16938SOL    HW155661   4.323   9.448   8.632
16938SOL    HW255662   4.197   9.551   8.639
16939SOL     OW55663   4.741   9.349   8.201
16939SOL    HW155664   4.669   9.354   8.132
16939SOL    HW255665   4.717   9.280   8.270
16940SOL     OW55666   4.251   9.566   7.776
16940SOL    HW155667   4.278   9.507   7.701
16940SOL    HW255668   4.251   9.661   7.745
16941SOL     OW55669   4.639   9.399   8.850
16941SOL    HW155670   4.664   9.379   8.755
16941SOL    HW255671   4.711   9.455   8.892
16942SOL     OW55672   4.998   9.696   8.710
16942SOL    HW155673   5.019   9.770   8.774
16942SOL    HW255674   4.909   9.713   8.667
16943SOL     OW55675   5.306   9.949   7.920
16943SOL    HW155676   5.275  10.010   7.993
16943SOL    HW255677   5.356  10.001   7.851
16944SOL     OW55678   4.737   9.415   9.218
16944SOL    HW155679   4.743   9.500   9.166
16944SOL    HW255680   4.769   9.339   9.161
16945SOL     OW55681   4.933   9.835   7.723
16945SOL    HW155682   4.946   9.751   7.777
16945SOL    HW255683   4.904   9.909   7.783
16946SOL     OW55684   4.031   9.523   8.679
16946SOL    HW155685   4.008   9.560   8.769
16946SOL    HW255686   4.001   9.428   8.673
16947SOL     OW55687   4.456   9.944   8.512
16947SOL    HW155688   4.515   9.918   8.436
16947SOL    HW255689   4.428  10.040   8.501
16948SOL     OW55690   4.031   9.373   8.066
16948SOL    HW155691   4.020   9.467   8.099
16948SOL    HW255692   4.026   9.310   8.143
16949SOL     OW55693   5.346   9.677   7.822
16949SOL    HW155694   5.348   9.601   7.886
16949SOL    HW255695   5.298   9.754   7.862
16950SOL     OW55696   5.264   9.584   7.573
16950SOL    HW155697   5.203   9.509   7.596
16950SOL    HW255698   5.286   9.636   7.656
16951SOL     OW55699   4.043  10.120   8.397
16951SOL    HW155700   4.136  10.156   8.402
16951SOL    HW255701   4.037  10.035   8.449
16952SOL     OW55702   4.063   9.819   8.454
16952SOL    HW155703   4.011   9.736   8.437
16952SOL    HW255704   4.140   9.824   8.390
16953SOL     OW55705   4.862   9.690   9.126
16953SOL    HW155706   4.817   9.753   9.190
16953SOL    HW255707   4.955   9.721   9.109
16954SOL     OW55708   4.884   9.517   8.925
16954SOL    HW155709   4.884   9.581   9.002
16954SOL    HW255710   4.912   9.565   8.842
16955SOL     OW55711   3.764   9.854   8.562
16955SOL    HW155712   3.849   9.821   8.521
16955SOL    HW255713   3.777   9.869   8.660
16956SOL     OW55714   3.913   9.830   9.170
16956SOL    HW155715   3.972   9.790   9.100
16956SOL    HW255716   3.855   9.901   9.129
16957SOL     OW55717   4.539   9.882   7.773
16957SOL    HW155718   4.546   9.793   7.727
16957SOL    HW255719   4.445   9.916   7.765
16958SOL     OW55720   4.395   9.774   8.717
16958SOL    HW155721   4.361   9.685   8.687
16958SOL    HW255722   4.421   9.828   8.637
16959SOL     OW55723   5.450   9.445   7.971
16959SOL    HW155724   5.523   9.428   7.904
16959SOL    HW255725   5.419   9.358   8.009
16960SOL     OW55726   5.565   9.485   8.411
16960SOL    HW155727   5.604   9.400   8.375
16960SOL    HW255728   5.467   9.487   8.392
16961SOL     OW55729   3.987   9.636   8.168
16961SOL    HW155730   3.908   9.687   8.134
16961SOL    HW255731   3.978   9.621   8.266
16962SOL     OW55732   4.738   9.546   8.419
16962SOL    HW155733   4.730   9.510   8.326
16962SOL    HW255734   4.736   9.470   8.484
16963SOL     OW55735   4.396   9.513   8.937
16963SOL    HW155736   4.486   9.497   8.897
16963SOL    HW255737   4.404   9.518   9.036
16964SOL     OW55738   3.799   9.655   7.481
16964SOL    HW155739   3.707   9.627   7.452
16964SOL    HW255740   3.830   9.732   7.425
16965SOL     OW55741   3.796   9.476   7.766
16965SOL    HW155742   3.779   9.559   7.712
16965SOL    HW255743   3.886   9.439   7.744
16966SOL     OW55744   4.440   9.875   9.156
16966SOL    HW155745   4.459   9.940   9.230
16966SOL    HW255746   4.500   9.795   9.165
16967SOL     OW55747   4.949   9.635   7.897
16967SOL    HW155748   5.014   9.561   7.886
16967SOL    HW255749   4.969   9.685   7.981
16968SOL     OW55750   5.501   9.652   9.090
16968SOL    HW155751   5.484   9.683   8.996
16968SOL    HW255752   5.417   9.615   9.128
16969SOL     OW55753   4.807  10.294   7.535
16969SOL    HW155754   4.784  10.347   7.453
16969SOL    HW255755   4.888  10.238   7.516
16970SOL     OW55756   5.548   9.502   8.675
16970SOL    HW155757   5.544   9.412   8.719
16970SOL    HW255758   5.551   9.491   8.576
16971SOL     OW55759   4.152   9.734   7.968
16971SOL    HW155760   4.182   9.662   7.906
16971SOL    HW255761   4.113   9.694   8.051
16972SOL     OW55762   4.041   9.857   8.728
16972SOL    HW155763   4.079   9.798   8.800
16972SOL    HW255764   4.081   9.831   8.640
16973SOL     OW55765   5.148   9.524   8.560
16973SOL    HW155766   5.200   9.459   8.615
16973SOL    HW255767   5.099   9.587   8.621
16974SOL     OW55768   4.725   9.344   8.602
16974SOL    HW155769   4.662   9.272   8.571
16974SOL    HW255770   4.818   9.308   8.602
16975SOL     OW55771   5.076   9.362   7.616
16975SOL    HW155772   5.111   9.321   7.532
16975SOL    HW255773   4.986   9.324   7.636
16976SOL     OW55774   5.024   9.763   8.139
16976SOL    HW155775   4.965   9.843   8.143
16976SOL    HW255776   5.039   9.728   8.232
16977SOL     OW55777   5.317   9.531   8.330
16977SOL    HW155778   5.233   9.530   8.384
16977SOL    HW255779   5.319   9.614   8.274
16978SOL     OW55780   5.479   9.917   9.541
16978SOL    HW155781   5.467   9.904   9.442
16978SOL    HW255782   5.449   9.836   9.590
16979SOL     OW55783   3.846   9.953   9.873
16979SOL    HW155784   3.801   9.865   9.890
16979SOL    HW255785   3.845  10.007   9.957
16980SOL     OW55786   4.533   9.314   9.812
16980SOL    HW155787   4.573   9.405   9.803
16980SOL    HW255788   4.433   9.322   9.818
16981SOL     OW55789   4.765  10.011   9.739
16981SOL    HW155790   4.791  10.007   9.835
16981SOL    HW255791   4.680   9.960   9.725
16982SOL     OW55792   4.589   9.658   9.505
16982SOL    HW155793   4.648   9.721   9.456
16982SOL    HW255794   4.608   9.564   9.476
16983SOL     OW55795   5.124   9.417   9.736
16983SOL    HW155796   5.100   9.380   9.646
16983SOL    HW255797   5.223   9.433   9.740
16984SOL     OW55798   4.263   9.374   9.822
16984SOL    HW155799   4.182   9.375   9.880
16984SOL    HW255800   4.266   9.457   9.767
16985SOL     OW55801   4.021   9.345   9.481
16985SOL    HW155802   4.070   9.429   9.460
16985SOL    HW255803   4.083   9.280   9.526
16986SOL     OW55804   4.659   9.546   9.790
16986SOL    HW155805   4.611   9.587   9.712
16986SOL    HW255806   4.758   9.544   9.771
16987SOL     OW55807   4.756   9.859   9.326
16987SOL    HW155808   4.715   9.941   9.287
16987SOL    HW255809   4.820   9.885   9.399
16988SOL     OW55810   4.590   9.764   9.952
16988SOL    HW155811   4.558   9.836   9.890
16988SOL    HW255812   4.614   9.683   9.899
16989SOL     OW55813   4.251   9.566   9.638
16989SOL    HW155814   4.278   9.507   9.563
16989SOL    HW255815   4.251   9.661   9.607
16990SOL     OW55816   5.306   9.949   9.782
16990SOL    HW155817   5.275  10.010   9.855
16990SOL    HW255818   5.356  10.001   9.713
16991SOL     OW55819   4.031   9.373   9.928
16991SOL    HW155820   4.020   9.467   9.961
16991SOL    HW255821   4.026   9.310  10.005
16992SOL     OW55822   5.346   9.677   9.684
16992SOL    HW155823   5.348   9.601   9.748
16992SOL    HW255824   5.298   9.754   9.724
16993SOL     OW55825   5.264   9.584   9.435
16993SOL    HW155826   5.203   9.509   9.458
16993SOL    HW255827   5.286   9.636   9.518
16994SOL     OW55828   4.063   9.819  10.316
16994SOL    HW155829   4.011   9.736  10.299
16994SOL    HW255830   4.140   9.824  10.252
16995SOL     OW55831   4.539   9.882   9.635
16995SOL    HW155832   4.546   9.793   9.589
16995SOL    HW255833   4.445   9.916   9.627
16996SOL     OW55834   5.450   9.445   9.833
16996SOL    HW155835   5.523   9.428   9.766
16996SOL    HW255836   5.419   9.358   9.871
16997SOL     OW55837   3.796   9.476   9.628
16997SOL    HW155838   3.779   9.559   9.574
16997SOL    HW255839   3.886   9.439   9.606
16998SOL     OW55840   4.949   9.635   9.759
16998SOL    HW155841   5.014   9.561   9.748
16998SOL    HW255842   4.969   9.685   9.843
16999SOL     OW55843   4.807  10.294   9.397
16999SOL    HW155844   4.784  10.347   9.315
16999SOL    HW255845   4.888  10.238   9.378
17000SOL     OW55846   4.152   9.734   9.830
17000SOL    HW155847   4.182   9.662   9.768
17000SOL    HW255848   4.113   9.694   9.913
17001SOL     OW55849   5.076   9.362   9.478
17001SOL    HW155850   5.111   9.321   9.394
17001SOL    HW255851   4.986   9.324   9.498
17002SOL     OW55852   5.024   9.763  10.001
17002SOL    HW155853   4.965   9.843  10.005
17002SOL    HW255854   5.039   9.728  10.094
17003SOL     OW55855   5.816   0.628   0.113
17003SOL    HW155856   5.723   0.626   0.150
17003SOL    HW255857   5.817   0.589   0.021
17004SOL     OW55858   5.811   0.275   0.996
17004SOL    HW155859   5.846   0.258   1.088
17004SOL    HW255860   5.723   0.230   0.984
17005SOL     OW55861   5.605   0.368   0.647
17005SOL    HW155862   5.523   0.411   0.686
17005SOL    HW255863   5.577   0.295   0.584
17006SOL     OW55864   7.141   1.511   0.703
17006SOL    HW155865   7.084   1.495   0.784
17006SOL    HW255866   7.082   1.521   0.623
17007SOL     OW55867   6.721   0.703   0.717
17007SOL    HW155868   6.778   0.781   0.692
17007SOL    HW255869   6.661   0.729   0.793
17008SOL     OW55870   7.341   0.607   0.231
17008SOL    HW155871   7.329   0.594   0.132
17008SOL    HW255872   7.311   0.526   0.280
17009SOL     OW55873   6.354   1.144   1.023
17009SOL    HW155874   6.276   1.161   1.083
17009SOL    HW255875   6.388   1.231   0.987
17010SOL     OW55876   6.271   1.012   0.665
17010SOL    HW155877   6.340   0.996   0.735
17010SOL    HW255878   6.198   1.069   0.703
17011SOL     OW55879   6.272   1.161   1.803
17011SOL    HW155880   6.332   1.240   1.817
17011SOL    HW255881   6.186   1.192   1.762
17012SOL     OW55882   7.046   1.505   1.339
17012SOL    HW155883   7.070   1.599   1.365
17012SOL    HW255884   7.030   1.451   1.421
17013SOL     OW55885   6.024   0.392   1.499
17013SOL    HW155886   6.106   0.336   1.508
17013SOL    HW255887   5.943   0.334   1.503
17014SOL     OW55888   7.189   0.447   0.737
17014SOL    HW155889   7.115   0.493   0.687
17014SOL    HW255890   7.240   0.515   0.790
17015SOL     OW55891   5.817   1.713   0.483
17015SOL    HW155892   5.851   1.790   0.537
17015SOL    HW255893   5.861   1.713   0.393
17016SOL     OW55894   6.713   1.341   1.690
17016SOL    HW155895   6.760   1.341   1.778
17016SOL    HW255896   6.665   1.254   1.679
17017SOL     OW55897   5.816   1.434   0.538
17017SOL    HW155898   5.790   1.530   0.538
17017SOL    HW255899   5.745   1.380   0.583
17018SOL     OW55900   5.826   1.091   0.886
17018SOL    HW155901   5.840   1.007   0.938
17018SOL    HW255902   5.771   1.155   0.941
17019SOL     OW55903   6.206   1.786   1.439
17019SOL    HW155904   6.114   1.769   1.474
17019SOL    HW255905   6.234   1.878   1.465
17020SOL     OW55906   7.180   0.114   1.480
17020SOL    HW155907   7.162   0.181   1.408
17020SOL    HW255908   7.177   0.160   1.569
17021SOL     OW55909   5.708   0.643   0.563
17021SOL    HW155910   5.663   0.555   0.580
17021SOL    HW255911   5.707   0.697   0.647
17022SOL     OW55912   7.428   1.767   0.359
17022SOL    HW155913   7.482   1.738   0.439
17022SOL    HW255914   7.458   1.857   0.330
17023SOL     OW55915   5.613   1.596   0.117
17023SOL    HW155916   5.594   1.500   0.138
17023SOL    HW255917   5.580   1.654   0.192
17024SOL     OW55918   7.275   0.922   0.612
17024SOL    HW155919   7.370   0.893   0.620
17024SOL    HW255920   7.267   0.987   0.537
17025SOL     OW55921   7.227   1.108   0.432
17025SOL    HW155922   7.313   1.110   0.380
17025SOL    HW255923   7.241   1.155   0.520
17026SOL     OW55924   5.699   0.737   1.597
17026SOL    HW155925   5.787   0.724   1.642
17026SOL    HW255926   5.686   0.834   1.575
17027SOL     OW55927   6.199   1.365   0.726
17027SOL    HW155928   6.150   1.278   0.735
17027SOL    HW255929   6.176   1.408   0.639
17028SOL     OW55930   6.879   1.228   1.423
17028SOL    HW155931   6.916   1.155   1.365
17028SOL    HW255932   6.931   1.233   1.508
17029SOL     OW55933   6.395   0.004   0.502
17029SOL    HW155934   6.435   0.095   0.493
17029SOL    HW255935   6.295   0.012   0.508
17030SOL     OW55936   5.783   0.976   1.264
17030SOL    HW155937   5.872   0.931   1.250
17030SOL    HW255938   5.710   0.911   1.245
17031SOL     OW55939   7.111   0.999   0.190
17031SOL    HW155940   7.048   0.923   0.203
17031SOL    HW255941   7.159   1.017   0.276
17032SOL     OW55942   6.773   1.792   1.616
17032SOL    HW155943   6.797   1.852   1.540
17032SOL    HW255944   6.780   1.697   1.586
17033SOL     OW55945   5.903   0.251   1.801
17033SOL    HW155946   5.974   0.322   1.807
17033SOL    HW255947   5.815   0.290   1.829
17034SOL     OW55948   7.052   1.417   0.953
17034SOL    HW155949   6.993   1.423   1.033
17034SOL    HW255950   7.037   1.329   0.907
17035SOL     OW55951   7.253   1.714   0.572
17035SOL    HW155952   7.212   1.691   0.484
17035SOL    HW255953   7.235   1.640   0.637
17036SOL     OW55954   6.184   0.729   0.270
17036SOL    HW155955   6.208   0.798   0.202
17036SOL    HW255956   6.106   0.762   0.324
17037SOL     OW55957   6.867   0.345   0.944
17037SOL    HW155958   6.781   0.295   0.931
17037SOL    HW255959   6.929   0.291   1.000
17038SOL     OW55960   7.162   1.662   0.307
17038SOL    HW155961   7.251   1.708   0.310
17038SOL    HW255962   7.141   1.638   0.212
17039SOL     OW55963   6.980   0.469   1.674
17039SOL    HW155964   6.960   0.512   1.762
17039SOL    HW255965   7.058   0.407   1.683
17040SOL     OW55966   6.577   0.410   1.242
17040SOL    HW155967   6.500   0.444   1.296
17040SOL    HW255968   6.543   0.359   1.163
17041SOL     OW55969   6.627   0.701   0.429
17041SOL    HW155970   6.653   0.697   0.525
17041SOL    HW255971   6.542   0.650   0.415
17042SOL     OW55972   5.662   0.811   0.789
17042SOL    HW155973   5.761   0.799   0.798
17042SOL    HW255974   5.638   0.906   0.810
17043SOL     OW55975   5.716   1.821   1.571
17043SOL    HW155976   5.706   1.806   1.670
17043SOL    HW255977   5.630   1.857   1.535
17044SOL     OW55978   6.451   0.348   0.195
17044SOL    HW155979   6.510   0.411   0.146
17044SOL    HW255980   6.470   0.254   0.166
17045SOL     OW55981   6.948   1.144   0.545
17045SOL    HW155982   7.031   1.115   0.497
17045SOL    HW255983   6.899   1.211   0.489
17046SOL     OW55984   6.136   0.196   0.885
17046SOL    HW155985   6.131   0.191   0.985
17046SOL    HW255986   6.138   0.292   0.856
17047SOL     OW55987   6.594   1.456   0.477
17047SOL    HW155988   6.548   1.528   0.425
17047SOL    HW255989   6.590   1.476   0.575
17048SOL     OW55990   7.381   1.066   0.873
17048SOL    HW155991   7.319   1.051   0.797
17048SOL    HW255992   7.329   1.077   0.958
17049SOL     OW55993   6.813   1.550   1.506
17049SOL    HW155994   6.819   1.473   1.570
17049SOL    HW255995   6.761   1.524   1.426
17050SOL     OW55996   5.907   0.943   0.242
17050SOL    HW155997   5.989   0.982   0.200
17050SOL    HW255998   5.880   0.861   0.193
17051SOL     OW55999   7.044   0.735   0.728
17051SOL    HW156000   7.039   0.670   0.803
17051SOL    HW256001   7.124   0.794   0.741
17052SOL     OW56002   6.047   1.266   1.727
17052SOL    HW156003   5.997   1.267   1.641
17052SOL    HW256004   5.984   1.248   1.803
17053SOL     OW56005   6.697   1.776   0.237
17053SOL    HW156006   6.637   1.714   0.287
17053SOL    HW256007   6.728   1.732   0.152
17054SOL     OW56008   5.788   0.285   1.498
17054SOL    HW156009   5.708   0.345   1.485
17054SOL    HW256010   5.778   0.236   1.584
17055SOL     OW56011   7.218   1.377   0.081
17055SOL    HW156012   7.186   1.471   0.071
17055SOL    HW256013   7.142   1.314   0.069
17056SOL     OW56014   6.050   1.743   0.323
17056SOL    HW156015   6.083   1.782   0.409
17056SOL    HW256016   6.126   1.736   0.258
17057SOL     OW56017   6.986   0.107   0.426
17057SOL    HW156018   6.962   0.070   0.336
17057SOL    HW256019   7.085   0.123   0.430
17058SOL     OW56020   5.835   1.785   1.241
17058SOL    HW156021   5.892   1.720   1.291
17058SOL    HW256022   5.819   1.752   1.148
17059SOL     OW56023   6.526   1.698   0.904
17059SOL    HW156024   6.606   1.641   0.925
17059SOL    HW256025   6.477   1.658   0.827
17060SOL     OW56026   5.968   0.700   0.480
17060SOL    HW156027   6.013   0.610   0.477
17060SOL    HW256028   5.874   0.689   0.513
17061SOL     OW56029   7.133   0.222   1.729
17061SOL    HW156030   7.128   0.259   1.821
17061SOL    HW256031   7.061   0.153   1.717
17062SOL     OW56032   6.200   0.122   0.117
17062SOL    HW156033   6.298   0.100   0.124
17062SOL    HW256034   6.169   0.105   0.024
17063SOL     OW56035   6.367   0.264   1.749
17063SOL    HW156036   6.434   0.203   1.792
17063SOL    HW256037   6.294   0.283   1.814
17064SOL     OW56038   6.474   1.514   1.195
17064SOL    HW156039   6.451   1.489   1.101
17064SOL    HW256040   6.535   1.445   1.234
17065SOL     OW56041   6.937   0.590   1.433
17065SOL    HW156042   6.965   0.547   1.518
17065SOL    HW256043   6.962   0.686   1.434
17066SOL     OW56044   6.389   1.402   0.924
17066SOL    HW156045   6.479   1.416   0.882
17066SOL    HW256046   6.318   1.404   0.853
17067SOL     OW56047   6.508   0.503   0.899
17067SOL    HW156048   6.483   0.494   0.803
17067SOL    HW256049   6.556   0.421   0.930
17068SOL     OW56050   7.020   1.188   0.041
17068SOL    HW156051   7.052   1.112   0.098
17068SOL    HW256052   6.928   1.215   0.071
17069SOL     OW56053   5.883   0.035   0.171
17069SOL    HW156054   5.932   0.119   0.150
17069SOL    HW256055   5.945  -0.030   0.216
17070SOL     OW56056   6.521   0.236   0.480
17070SOL    HW156057   6.473   0.277   0.402
17070SOL    HW256058   6.620   0.234   0.461
17071SOL     OW56059   6.045   1.152   0.741
17071SOL    HW156060   5.974   1.125   0.806
17071SOL    HW256061   6.019   1.124   0.648
17072SOL     OW56062   6.618   0.549   0.016
17072SOL    HW156063   6.577   0.631  -0.023
17072SOL    HW256064   6.682   0.575   0.089
17073SOL     OW56065   5.664   0.556   1.386
17073SOL    HW156066   5.756   0.555   1.345
17073SOL    HW256067   5.658   0.630   1.453
17074SOL     OW56068   6.147   0.222   1.147
17074SOL    HW156069   6.185   0.138   1.184
17074SOL    HW256070   6.059   0.241   1.191
17075SOL     OW56071   6.452   0.454   0.642
17075SOL    HW156072   6.420   0.526   0.580
17075SOL    HW256073   6.476   0.373   0.589
17076SOL     OW56074   6.603   0.039   0.753
17076SOL    HW156075   6.531   0.044   0.684
17076SOL    HW256076   6.579  -0.030   0.822
17077SOL     OW56077   7.015   1.173   0.867
17077SOL    HW156078   6.960   1.089   0.860
17077SOL    HW256079   7.041   1.202   0.775
17078SOL     OW56080   7.052   0.590   0.992
17078SOL    HW156081   7.022   0.495   0.999
17078SOL    HW256082   7.125   0.606   1.058
17079SOL     OW56083   7.443   0.833   0.377
17079SOL    HW156084   7.485   0.769   0.441
17079SOL    HW256085   7.405   0.782   0.299
17080SOL     OW56086   7.250   1.280   0.657
17080SOL    HW156087   7.349   1.288   0.671
17080SOL    HW256088   7.205   1.364   0.688
17081SOL     OW56089   6.113   0.256   0.328
17081SOL    HW156090   6.140   0.197   0.253
17081SOL    HW256091   6.113   0.351   0.297
17082SOL     OW56092   7.340   1.223   1.588
17082SOL    HW156093   7.431   1.184   1.575
17082SOL    HW256094   7.348   1.319   1.612
17083SOL     OW56095   6.650   1.347   1.340
17083SOL    HW156096   6.570   1.324   1.395
17083SOL    HW256097   6.733   1.321   1.389
17084SOL     OW56098   7.178   1.629   1.625
17084SOL    HW156099   7.205   1.663   1.535
17084SOL    HW256100   7.257   1.591   1.671
17085SOL     OW56101   6.697   1.195   1.100
17085SOL    HW156102   6.657   1.239   1.181
17085SOL    HW256103   6.656   1.232   1.017
17086SOL     OW56104   7.224   1.099   1.079
17086SOL    HW156105   7.229   1.180   1.138
17086SOL    HW256106   7.138   1.101   1.028
17087SOL     OW56107   6.501   0.089   1.402
17087SOL    HW156108   6.526   0.069   1.307
17087SOL    HW256109   6.573   0.145   1.444
17088SOL     OW56110   6.566   1.116   1.719
17088SOL    HW156111   6.467   1.122   1.729
17088SOL    HW256112   6.589   1.036   1.663
17089SOL     OW56113   6.291   1.050   0.368
17089SOL    HW156114   6.277   1.057   0.467
17089SOL    HW256115   6.375   0.999   0.350
17090SOL     OW56116   5.996   0.813   1.251
17090SOL    HW156117   6.082   0.825   1.301
17090SOL    HW256118   5.954   0.726   1.278
17091SOL     OW56119   6.860   0.386   1.262
17091SOL    HW156120   6.881   0.460   1.326
17091SOL    HW256121   6.771   0.403   1.219
17092SOL     OW56122   5.650   1.564   1.331
17092SOL    HW156123   5.604   1.646   1.297
17092SOL    HW256124   5.748   1.583   1.340
17093SOL     OW56125   5.953   1.100   0.501
17093SOL    HW156126   5.946   1.183   0.445
17093SOL    HW256127   5.957   1.020   0.441
17094SOL     OW56128   6.152   0.537   0.865
17094SOL    HW156129   6.164   0.603   0.791
17094SOL    HW256130   6.198   0.571   0.948
17095SOL     OW56131   6.838   1.348   0.388
17095SOL    HW156132   6.888   1.425   0.428
17095SOL    HW256133   6.743   1.350   0.420
17096SOL     OW56134   6.858   1.445   1.142
17096SOL    HW156135   6.905   1.458   1.229
17096SOL    HW256136   6.792   1.371   1.151
17097SOL     OW56137   7.168   0.639   0.472
17097SOL    HW156138   7.137   0.700   0.545
17097SOL    HW256139   7.218   0.691   0.403
17098SOL     OW56140   5.988   0.751   1.598
17098SOL    HW156141   6.056   0.806   1.551
17098SOL    HW256142   6.028   0.663   1.625
17099SOL     OW56143   7.173   0.779   1.670
17099SOL    HW156144   7.081   0.817   1.665
17099SOL    HW256145   7.233   0.826   1.605
17100SOL     OW56146   6.599   0.105   1.770
17100SOL    HW156147   6.605   0.190   1.718
17100SOL    HW256148   6.631   0.029   1.713
17101SOL     OW56149   6.090   0.050   1.740
17101SOL    HW156150   6.048  -0.007   1.670
17101SOL    HW256151   6.024   0.119   1.772
17102SOL     OW56152   6.159   0.870   1.029
17102SOL    HW156153   6.203   0.959   1.020
17102SOL    HW256154   6.096   0.870   1.106
17103SOL     OW56155   6.946   0.862   1.045
17103SOL    HW156156   6.871   0.862   0.979
17103SOL    HW256157   6.983   0.770   1.054
17104SOL     OW56158   6.795   0.525   0.275
17104SOL    HW156159   6.808   0.441   0.329
17104SOL    HW256160   6.766   0.599   0.335
17105SOL     OW56161   5.893   0.213   1.231
17105SOL    HW156162   5.870   0.250   1.321
17105SOL    HW256163   5.863   0.118   1.225
17106SOL     OW56164   5.623   1.310   1.282
17106SOL    HW156165   5.676   1.261   1.350
17106SOL    HW256166   5.645   1.408   1.287
17107SOL     OW56167   6.318   0.634   1.064
17107SOL    HW156168   6.377   0.608   0.988
17107SOL    HW256169   6.290   0.730   1.053
17108SOL     OW56170   7.314   0.935   1.854
17108SOL    HW156171   7.268   0.928   1.765
17108SOL    HW256172   7.252   0.979   1.920
17109SOL     OW56173   5.893   0.063   0.618
17109SOL    HW156174   5.882   0.157   0.651
17109SOL    HW256175   5.888   0.000   0.695
17110SOL     OW56176   7.208   0.367   0.374
17110SOL    HW156177   7.210   0.291   0.438
17110SOL    HW256178   7.160   0.444   0.414
17111SOL     OW56179   6.609   0.766   0.966
17111SOL    HW156180   6.624   0.787   1.062
17111SOL    HW256181   6.579   0.671   0.957
17112SOL     OW56182   6.566   1.573   1.700
17112SOL    HW156183   6.546   1.617   1.612
17112SOL    HW256184   6.605   1.482   1.684
17113SOL     OW56185   7.445   1.518   1.605
17113SOL    HW156186   7.459   1.545   1.510
17113SOL    HW256187   7.528   1.540   1.658
17114SOL     OW56188   5.936   0.898   1.804
17114SOL    HW156189   6.012   0.942   1.852
17114SOL    HW256190   5.971   0.851   1.722
17115SOL     OW56191   7.126   0.274   0.125
17115SOL    HW156192   7.065   0.199   0.148
17115SOL    HW256193   7.148   0.326   0.208
17116SOL     OW56194   6.889   0.838   0.042
17116SOL    HW156195   6.923   0.745   0.057
17116SOL    HW256196   6.907   0.865  -0.053
17117SOL     OW56197   6.654   1.333   0.849
17117SOL    HW156198   6.661   1.249   0.794
17117SOL    HW256199   6.716   1.402   0.813
17118SOL     OW56200   5.905   0.810   0.949
17118SOL    HW156201   5.998   0.846   0.954
17118SOL    HW256202   5.899   0.725   1.001
17119SOL     OW56203   5.925   0.509   1.006
17119SOL    HW156204   5.873   0.426   0.989
17119SOL    HW256205   6.002   0.514   0.942
17120SOL     OW56206   6.724   0.380   1.678
17120SOL    HW156207   6.679   0.443   1.742
17120SOL    HW256208   6.817   0.411   1.661
17121SOL     OW56209   6.746   0.207   1.477
17121SOL    HW156210   6.746   0.271   1.554
17121SOL    HW256211   6.774   0.255   1.394
17122SOL     OW56212   5.594   1.326   0.200
17122SOL    HW156213   5.501   1.347   0.169
17122SOL    HW256214   5.604   1.227   0.213
17123SOL     OW56215   5.674   1.801   0.927
17123SOL    HW156216   5.632   1.715   0.900
17123SOL    HW256217   5.768   1.804   0.893
17124SOL     OW56218   5.626   0.544   1.114
17124SOL    HW156219   5.711   0.511   1.073
17124SOL    HW256220   5.639   0.559   1.212
17125SOL     OW56221   5.775   0.520   1.722
17125SOL    HW156222   5.834   0.480   1.652
17125SOL    HW256223   5.717   0.591   1.681
17126SOL     OW56224   6.955   0.950   1.660
17126SOL    HW156225   6.994   1.039   1.680
17126SOL    HW256226   6.965   0.930   1.563
17127SOL     OW56227   6.401   0.572   0.325
17127SOL    HW156228   6.408   0.483   0.279
17127SOL    HW256229   6.307   0.606   0.317
17128SOL     OW56230   7.243   0.604   1.206
17128SOL    HW156231   7.205   0.535   1.268
17128SOL    HW256232   7.325   0.568   1.162
17129SOL     OW56233   5.838   1.564   1.744
17129SOL    HW156234   5.808   1.621   1.820
17129SOL    HW256235   5.831   1.467   1.770
17130SOL     OW56236   6.516   1.678   1.465
17130SOL    HW156237   6.492   1.660   1.370
17130SOL    HW256238   6.546   1.772   1.475
17131SOL     OW56239   6.059   0.500   0.191
17131SOL    HW156240   6.120   0.580   0.195
17131SOL    HW256241   5.964   0.531   0.198
17132SOL     OW56242   5.745   1.137   1.466
17132SOL    HW156243   5.767   1.076   1.542
17132SOL    HW256244   5.755   1.088   1.380
17133SOL     OW56245   6.933   1.059   1.234
17133SOL    HW156246   6.957   0.996   1.160
17133SOL    HW256247   6.843   1.099   1.216
17134SOL     OW56248   6.888   0.855   0.309
17134SOL    HW156249   6.802   0.824   0.351
17134SOL    HW256250   6.884   0.841   0.210
17135SOL     OW56251   7.345   1.747   1.154
17135SOL    HW156252   7.406   1.777   1.081
17135SOL    HW256253   7.307   1.658   1.132
17136SOL     OW56254   6.838   1.731   1.128
17136SOL    HW156255   6.922   1.736   1.074
17136SOL    HW256256   6.815   1.635   1.146
17137SOL     OW56257   5.669   1.258   1.022
17137SOL    HW156258   5.664   1.257   1.122
17137SOL    HW256259   5.586   1.217   0.984
17138SOL     OW56260   6.274   1.662   1.716
17138SOL    HW156261   6.218   1.743   1.725
17138SOL    HW256262   6.326   1.666   1.630
17139SOL     OW56263   6.489   0.086   0.133
17139SOL    HW156264   6.540   0.087   0.047
17139SOL    HW256265   6.545   0.044   0.204
17140SOL     OW56266   7.312   0.135   0.523
17140SOL    HW156267   7.385   0.118   0.456
17140SOL    HW256268   7.281   0.048   0.561
17141SOL     OW56269   5.716   1.794   1.851
17141SOL    HW156270   5.675   1.720   1.904
17141SOL    HW256271   5.780   1.845   1.909
17142SOL     OW56272   6.416   1.273   1.422
17142SOL    HW156273   6.411   1.306   1.517
17142SOL    HW256274   6.330   1.292   1.376
17143SOL     OW56275   6.258   1.616   0.154
17143SOL    HW156276   6.267   1.626   0.055
17143SOL    HW256277   6.218   1.527   0.175
17144SOL     OW56278   7.236   1.720   1.394
17144SOL    HW156279   7.289   1.730   1.310
17144SOL    HW256280   7.209   1.810   1.428
17145SOL     OW56281   7.427   0.175   0.963
17145SOL    HW156282   7.466   0.090   0.927
17145SOL    HW256283   7.329   0.177   0.944
17146SOL     OW56284   5.849   0.326   0.720
17146SOL    HW156285   5.770   0.377   0.686
17146SOL    HW256286   5.840   0.311   0.818
17147SOL     OW56287   6.780   1.612   0.031
17147SOL    HW156288   6.786   1.519   0.068
17147SOL    HW256289   6.721   1.612  -0.049
17148SOL     OW56290   6.408   1.002   1.372
17148SOL    HW156291   6.448   1.001   1.280
17148SOL    HW256292   6.418   1.094   1.412
17149SOL     OW56293   6.502   0.910   0.291
17149SOL    HW156294   6.565   0.948   0.223
17149SOL    HW256295   6.542   0.827   0.330
17150SOL     OW56296   7.090   1.607   0.044
17150SOL    HW156297   6.998   1.644   0.051
17150SOL    HW256298   7.128   1.627  -0.046
17151SOL     OW56299   5.958   1.288   1.490
17151SOL    HW156300   5.945   1.381   1.456
17151SOL    HW256301   5.874   1.236   1.477
17152SOL     OW56302   7.200   1.292   1.289
17152SOL    HW156303   7.260   1.295   1.369
17152SOL    HW256304   7.125   1.356   1.302
17153SOL     OW56305   6.625   1.098   0.696
17153SOL    HW156306   6.555   1.051   0.750
17153SOL    HW256307   6.684   1.030   0.653
17154SOL     OW56308   6.600   0.236   0.971
17154SOL    HW156309   6.592   0.200   0.878
17154SOL    HW256310   6.598   0.160   1.036
17155SOL     OW56311   6.176   1.487   0.491
17155SOL    HW156312   6.218   1.429   0.421
17155SOL    HW256313   6.132   1.566   0.447
17156SOL     OW56314   7.295   0.385   1.381
17156SOL    HW156315   7.368   0.454   1.385
17156SOL    HW256316   7.323   0.310   1.322
17157SOL     OW56317   5.841   1.348   0.290
17157SOL    HW156318   5.745   1.349   0.263
17157SOL    HW256319   5.853   1.401   0.374
17158SOL     OW56320   5.691   1.013   1.726
17158SOL    HW156321   5.614   0.980   1.780
17158SOL    HW256322   5.776   0.983   1.768
17159SOL     OW56323   6.258   0.203   1.489
17159SOL    HW156324   6.348   0.187   1.449
17159SOL    HW256325   6.266   0.208   1.588
17160SOL     OW56326   5.661   0.345   0.033
17160SOL    HW156327   5.569   0.317   0.004
17160SOL    HW256328   5.692   0.422  -0.023
17161SOL     OW56329   7.026   0.856   1.398
17161SOL    HW156330   6.969   0.908   1.335
17161SOL    HW256331   7.122   0.868   1.374
17162SOL     OW56332   6.769   1.335   0.119
17162SOL    HW156333   6.670   1.324   0.121
17162SOL    HW256334   6.803   1.350   0.212
17163SOL     OW56335   7.079   1.767   0.959
17163SOL    HW156336   7.112   1.831   0.890
17163SOL    HW256337   7.145   1.761   1.034
17164SOL     OW56338   7.036   1.220   1.633
17164SOL    HW156339   7.027   1.210   1.732
17164SOL    HW256340   7.132   1.213   1.607
17165SOL     OW56341   5.976   1.741   1.560
17165SOL    HW156342   5.885   1.782   1.558
17165SOL    HW256343   5.969   1.647   1.592
17166SOL     OW56344   7.260   0.883   1.254
17166SOL    HW156345   7.233   0.794   1.217
17166SOL    HW256346   7.261   0.951   1.181
17167SOL     OW56347   6.811   0.325   0.449
17167SOL    HW156348   6.876   0.251   0.438
17167SOL    HW256349   6.831   0.375   0.533
17168SOL     OW56350   6.180   0.745   0.652
17168SOL    HW156351   6.230   0.830   0.633
17168SOL    HW256352   6.092   0.747   0.604
17169SOL     OW56353   7.363   0.342   1.642
17169SOL    HW156354   7.346   0.373   1.548
17169SOL    HW256355   7.279   0.305   1.680
17170SOL     OW56356   7.316   0.934   1.517
17170SOL    HW156357   7.354   1.025   1.532
17170SOL    HW256358   7.308   0.917   1.418
17171SOL     OW56359   6.445   1.374   0.016
17171SOL    HW156360   6.399   1.389   0.104
17171SOL    HW256361   6.489   1.459  -0.014
17172SOL     OW56362   6.445   0.956   0.861
17172SOL    HW156363   6.499   0.887   0.909
17172SOL    HW256364   6.413   1.025   0.927
17173SOL     OW56365   6.669   0.984   0.087
17173SOL    HW156366   6.646   1.037   0.005
17173SOL    HW256367   6.750   0.928   0.068
17174SOL     OW56368   7.447   1.569   0.851
17174SOL    HW156369   7.376   1.557   0.781
17174SOL    HW256370   7.448   1.490   0.911
17175SOL     OW56371   5.807   1.314   1.844
17175SOL    HW156372   5.742   1.241   1.823
17175SOL    HW256373   5.811   1.328   1.942
17176SOL     OW56374   5.665   1.240   0.653
17176SOL    HW156375   5.664   1.193   0.741
17176SOL    HW256376   5.747   1.212   0.602
17177SOL     OW56377   6.258   1.391   1.624
17177SOL    HW156378   6.180   1.341   1.662
17177SOL    HW256379   6.255   1.486   1.655
17178SOL     OW56380   7.410   0.192   1.227
17178SOL    HW156381   7.406   0.102   1.271
17178SOL    HW256382   7.413   0.181   1.128
17179SOL     OW56383   6.014   0.424   0.520
17179SOL    HW156384   6.044   0.352   0.458
17179SOL    HW256385   5.975   0.384   0.603
17180SOL     OW56386   7.291   1.487   1.104
17180SOL    HW156387   7.198   1.462   1.077
17180SOL    HW256388   7.317   1.437   1.186
17181SOL     OW56389   5.903   0.547   1.280
17181SOL    HW156390   5.941   0.488   1.352
17181SOL    HW256391   5.943   0.521   1.192
17182SOL     OW56392   6.398   1.586   0.687
17182SOL    HW156393   6.430   1.596   0.593
17182SOL    HW256394   6.319   1.524   0.689
17183SOL     OW56395   7.010   0.214   1.112
17183SOL    HW156396   7.062   0.149   1.167
17183SOL    HW256397   6.961   0.277   1.173
17184SOL     OW56398   6.587   0.034   1.154
17184SOL    HW156399   6.524  -0.038   1.123
17184SOL    HW256400   6.680  -0.002   1.154
17185SOL     OW56401   6.356   1.330   0.301
17185SOL    HW156402   6.310   1.243   0.318
17185SOL    HW256403   6.447   1.327   0.342
17186SOL     OW56404   6.938   0.052   0.168
17186SOL    HW156405   6.973   0.011   0.084
17186SOL    HW256406   6.848   0.014   0.188
17187SOL     OW56407   6.886   0.453   0.691
17187SOL    HW156408   6.827   0.533   0.695
17187SOL    HW256409   6.901   0.418   0.784
17188SOL     OW56410   7.179   0.221   0.882
17188SOL    HW156411   7.095   0.220   0.936
17188SOL    HW256412   7.181   0.304   0.826
17189SOL     OW56413   5.625   1.077   0.300
17189SOL    HW156414   5.724   1.066   0.291
17189SOL    HW256415   5.585   0.991   0.332
17190SOL     OW56416   6.461   1.646   0.337
17190SOL    HW156417   6.384   1.611   0.283
17190SOL    HW256418   6.429   1.717   0.399
17191SOL     OW56419   5.816   0.628   1.975
17191SOL    HW156420   5.723   0.626   2.012
17191SOL    HW256421   5.817   0.589   1.883
17192SOL     OW56422   5.811   0.275   2.858
17192SOL    HW156423   5.846   0.258   2.950
17192SOL    HW256424   5.723   0.230   2.846
17193SOL     OW56425   5.605   0.368   2.509
17193SOL    HW156426   5.523   0.411   2.548
17193SOL    HW256427   5.577   0.295   2.446
17194SOL     OW56428   6.155   1.275   3.027
17194SOL    HW156429   6.062   1.268   2.990
17194SOL    HW256430   6.166   1.364   3.071
17195SOL     OW56431   7.141   1.511   2.565
17195SOL    HW156432   7.084   1.495   2.646
17195SOL    HW256433   7.082   1.521   2.485
17196SOL     OW56434   6.721   0.703   2.579
17196SOL    HW156435   6.778   0.781   2.554
17196SOL    HW256436   6.661   0.729   2.655
17197SOL     OW56437   6.354   1.144   2.885
17197SOL    HW156438   6.276   1.161   2.945
17197SOL    HW256439   6.388   1.231   2.849
17198SOL     OW56440   6.436   0.798   3.685
17198SOL    HW156441   6.432   0.874   3.750
17198SOL    HW256442   6.458   0.834   3.594
17199SOL     OW56443   6.271   1.012   2.527
17199SOL    HW156444   6.340   0.996   2.597
17199SOL    HW256445   6.198   1.069   2.565
17200SOL     OW56446   6.272   1.161   3.665
17200SOL    HW156447   6.332   1.240   3.679
17200SOL    HW256448   6.186   1.192   3.624
17201SOL     OW56449   5.921   1.435   2.923
17201SOL    HW156450   5.843   1.404   2.870
17201SOL    HW256451   5.979   1.493   2.866
17202SOL     OW56452   7.046   1.505   3.201
17202SOL    HW156453   7.070   1.599   3.227
17202SOL    HW256454   7.030   1.451   3.283
17203SOL     OW56455   6.024   0.392   3.361
17203SOL    HW156456   6.106   0.336   3.370
17203SOL    HW256457   5.943   0.334   3.365
17204SOL     OW56458   7.189   0.447   2.599
17204SOL    HW156459   7.115   0.493   2.549
17204SOL    HW256460   7.240   0.515   2.652
17205SOL     OW56461   5.817   1.713   2.345
17205SOL    HW156462   5.851   1.790   2.399
17205SOL    HW256463   5.861   1.713   2.255
17206SOL     OW56464   6.713   1.341   3.552
17206SOL    HW156465   6.760   1.341   3.640
17206SOL    HW256466   6.665   1.254   3.541
17207SOL     OW56467   5.816   1.434   2.400
17207SOL    HW156468   5.790   1.530   2.400
17207SOL    HW256469   5.745   1.380   2.445
17208SOL     OW56470   5.826   1.091   2.748
17208SOL    HW156471   5.840   1.007   2.800
17208SOL    HW256472   5.771   1.155   2.803
17209SOL     OW56473   6.206   1.786   3.301
17209SOL    HW156474   6.114   1.769   3.336
17209SOL    HW256475   6.234   1.878   3.327
17210SOL     OW56476   6.192   0.964   1.985
17210SOL    HW156477   6.199   1.048   1.931
17210SOL    HW256478   6.238   0.977   2.073
17211SOL     OW56479   7.180   0.114   3.342
17211SOL    HW156480   7.162   0.181   3.270
17211SOL    HW256481   7.177   0.160   3.431
17212SOL     OW56482   7.428   1.767   2.221
17212SOL    HW156483   7.482   1.738   2.301
17212SOL    HW256484   7.458   1.857   2.192
17213SOL     OW56485   5.613   1.596   1.979
17213SOL    HW156486   5.594   1.500   2.000
17213SOL    HW256487   5.580   1.654   2.054
17214SOL     OW56488   7.275   0.922   2.474
17214SOL    HW156489   7.370   0.893   2.482
17214SOL    HW256490   7.267   0.987   2.399
17215SOL     OW56491   7.227   1.108   2.294
17215SOL    HW156492   7.313   1.110   2.242
17215SOL    HW256493   7.241   1.155   2.382
17216SOL     OW56494   5.699   0.737   3.459
17216SOL    HW156495   5.787   0.724   3.504
17216SOL    HW256496   5.686   0.834   3.437
17217SOL     OW56497   6.199   1.365   2.588
17217SOL    HW156498   6.150   1.278   2.597
17217SOL    HW256499   6.176   1.408   2.501
17218SOL     OW56500   6.879   1.228   3.285
17218SOL    HW156501   6.916   1.155   3.227
17218SOL    HW256502   6.931   1.233   3.370
17219SOL     OW56503   6.395   0.004   2.364
17219SOL    HW156504   6.435   0.095   2.355
17219SOL    HW256505   6.295   0.012   2.370
17220SOL     OW56506   5.783   0.976   3.126
17220SOL    HW156507   5.872   0.931   3.112
17220SOL    HW256508   5.710   0.911   3.107
17221SOL     OW56509   7.111   0.999   2.052
17221SOL    HW156510   7.048   0.923   2.065
17221SOL    HW256511   7.159   1.017   2.138
17222SOL     OW56512   6.773   1.792   3.478
17222SOL    HW156513   6.797   1.852   3.402
17222SOL    HW256514   6.780   1.697   3.448
17223SOL     OW56515   5.903   0.251   3.663
17223SOL    HW156516   5.974   0.322   3.669
17223SOL    HW256517   5.815   0.290   3.691
17224SOL     OW56518   7.052   1.417   2.815
17224SOL    HW156519   6.993   1.423   2.895
17224SOL    HW256520   7.037   1.329   2.769
17225SOL     OW56521   7.253   1.714   2.434
17225SOL    HW156522   7.212   1.691   2.346
17225SOL    HW256523   7.235   1.640   2.499
17226SOL     OW56524   6.184   0.729   2.132
17226SOL    HW156525   6.208   0.798   2.064
17226SOL    HW256526   6.106   0.762   2.186
17227SOL     OW56527   6.867   0.345   2.806
17227SOL    HW156528   6.781   0.295   2.793
17227SOL    HW256529   6.929   0.291   2.862
17228SOL     OW56530   7.162   1.662   2.169
17228SOL    HW156531   7.251   1.708   2.172
17228SOL    HW256532   7.141   1.638   2.074
17229SOL     OW56533   6.393   0.605   3.327
17229SOL    HW156534   6.346   0.602   3.416
17229SOL    HW256535   6.342   0.550   3.261
17230SOL     OW56536   6.980   0.469   3.536
17230SOL    HW156537   6.960   0.512   3.624
17230SOL    HW256538   7.058   0.407   3.545
17231SOL     OW56539   6.559   0.890   3.434
17231SOL    HW156540   6.605   0.806   3.405
17231SOL    HW256541   6.503   0.924   3.359
17232SOL     OW56542   6.627   0.701   2.291
17232SOL    HW156543   6.653   0.697   2.387
17232SOL    HW256544   6.542   0.650   2.277
17233SOL     OW56545   5.662   0.811   2.651
17233SOL    HW156546   5.761   0.799   2.660
17233SOL    HW256547   5.638   0.906   2.672
17234SOL     OW56548   5.716   1.821   3.433
17234SOL    HW156549   5.706   1.806   3.532
17234SOL    HW256550   5.630   1.857   3.397
17235SOL     OW56551   6.451   0.348   2.057
17235SOL    HW156552   6.510   0.411   2.008
17235SOL    HW256553   6.470   0.254   2.028
17236SOL     OW56554   7.305   0.585   3.693
17236SOL    HW156555   7.279   0.674   3.657
17236SOL    HW256556   7.303   0.517   3.620
17237SOL     OW56557   6.948   1.144   2.407
17237SOL    HW156558   7.031   1.115   2.359
17237SOL    HW256559   6.899   1.211   2.351
17238SOL     OW56560   6.136   0.196   2.747
17238SOL    HW156561   6.131   0.191   2.847
17238SOL    HW256562   6.138   0.292   2.718
17239SOL     OW56563   6.594   1.456   2.339
17239SOL    HW156564   6.548   1.528   2.287
17239SOL    HW256565   6.590   1.476   2.437
17240SOL     OW56566   5.937   1.801   2.715
17240SOL    HW156567   5.987   1.715   2.721
17240SOL    HW256568   6.002   1.878   2.712
17241SOL     OW56569   7.381   1.066   2.735
17241SOL    HW156570   7.319   1.051   2.659
17241SOL    HW256571   7.329   1.077   2.820
17242SOL     OW56572   6.813   1.550   3.368
17242SOL    HW156573   6.819   1.473   3.432
17242SOL    HW256574   6.761   1.524   3.288
17243SOL     OW56575   5.907   0.943   2.104
17243SOL    HW156576   5.989   0.982   2.062
17243SOL    HW256577   5.880   0.861   2.055
17244SOL     OW56578   7.044   0.735   2.590
17244SOL    HW156579   7.039   0.670   2.665
17244SOL    HW256580   7.124   0.794   2.603
17245SOL     OW56581   6.047   1.266   3.589
17245SOL    HW156582   5.997   1.267   3.503
17245SOL    HW256583   5.984   1.248   3.665
17246SOL     OW56584   6.697   1.776   2.099
17246SOL    HW156585   6.637   1.714   2.149
17246SOL    HW256586   6.728   1.732   2.014
17247SOL     OW56587   5.788   0.285   3.360
17247SOL    HW156588   5.708   0.345   3.347
17247SOL    HW256589   5.778   0.236   3.446
17248SOL     OW56590   7.218   1.377   1.943
17248SOL    HW156591   7.186   1.471   1.933
17248SOL    HW256592   7.142   1.314   1.931
17249SOL     OW56593   6.986   0.107   2.288
17249SOL    HW156594   6.962   0.070   2.198
17249SOL    HW256595   7.085   0.123   2.292
17250SOL     OW56596   5.835   1.785   3.103
17250SOL    HW156597   5.892   1.720   3.153
17250SOL    HW256598   5.819   1.752   3.010
17251SOL     OW56599   6.526   1.698   2.766
17251SOL    HW156600   6.606   1.641   2.787
17251SOL    HW256601   6.477   1.658   2.689
17252SOL     OW56602   7.133   0.222   3.591
17252SOL    HW156603   7.128   0.259   3.683
17252SOL    HW256604   7.061   0.153   3.579
17253SOL     OW56605   6.200   0.122   1.979
17253SOL    HW156606   6.298   0.100   1.986
17253SOL    HW256607   6.169   0.105   1.886
17254SOL     OW56608   6.367   0.264   3.611
17254SOL    HW156609   6.434   0.203   3.654
17254SOL    HW256610   6.294   0.283   3.676
17255SOL     OW56611   6.474   1.514   3.057
17255SOL    HW156612   6.451   1.489   2.963
17255SOL    HW256613   6.535   1.445   3.096
17256SOL     OW56614   6.937   0.590   3.295
17256SOL    HW156615   6.965   0.547   3.380
17256SOL    HW256616   6.962   0.686   3.296
17257SOL     OW56617   6.389   1.402   2.786
17257SOL    HW156618   6.479   1.416   2.744
17257SOL    HW256619   6.318   1.404   2.715
17258SOL     OW56620   6.508   0.503   2.761
17258SOL    HW156621   6.483   0.494   2.665
17258SOL    HW256622   6.556   0.421   2.792
17259SOL     OW56623   6.125   0.064   2.374
17259SOL    HW156624   6.044   0.065   2.432
17259SOL    HW256625   6.128   0.147   2.319
17260SOL     OW56626   7.020   1.188   1.903
17260SOL    HW156627   7.052   1.112   1.960
17260SOL    HW256628   6.928   1.215   1.933
17261SOL     OW56629   5.883   0.035   2.033
17261SOL    HW156630   5.932   0.119   2.012
17261SOL    HW256631   5.945  -0.030   2.078
17262SOL     OW56632   6.521   0.236   2.342
17262SOL    HW156633   6.473   0.277   2.264
17262SOL    HW256634   6.620   0.234   2.323
17263SOL     OW56635   6.662   0.683   3.326
17263SOL    HW156636   6.582   0.622   3.329
17263SOL    HW256637   6.743   0.630   3.302
17264SOL     OW56638   6.813   1.570   2.655
17264SOL    HW156639   6.834   1.644   2.590
17264SOL    HW256640   6.881   1.570   2.728
17265SOL     OW56641   6.045   1.152   2.603
17265SOL    HW156642   5.974   1.125   2.668
17265SOL    HW256643   6.019   1.124   2.510
17266SOL     OW56644   6.857   1.797   2.453
17266SOL    HW156645   6.901   1.861   2.389
17266SOL    HW256646   6.807   1.849   2.523
17267SOL     OW56647   6.618   0.549   1.878
17267SOL    HW156648   6.577   0.631   1.839
17267SOL    HW256649   6.682   0.575   1.951
17268SOL     OW56650   5.664   0.556   3.248
17268SOL    HW156651   5.756   0.555   3.207
17268SOL    HW256652   5.658   0.630   3.315
17269SOL     OW56653   6.147   0.222   3.009
17269SOL    HW156654   6.185   0.138   3.046
17269SOL    HW256655   6.059   0.241   3.053
17270SOL     OW56656   6.452   0.454   2.504
17270SOL    HW156657   6.420   0.526   2.442
17270SOL    HW256658   6.476   0.373   2.451
17271SOL     OW56659   7.015   1.173   2.729
17271SOL    HW156660   6.960   1.089   2.722
17271SOL    HW256661   7.041   1.202   2.637
17272SOL     OW56662   7.052   0.590   2.854
17272SOL    HW156663   7.022   0.495   2.861
17272SOL    HW256664   7.125   0.606   2.920
17273SOL     OW56665   7.443   0.833   2.239
17273SOL    HW156666   7.485   0.769   2.303
17273SOL    HW256667   7.405   0.782   2.161
17274SOL     OW56668   6.074   1.385   2.036
17274SOL    HW156669   5.987   1.370   2.083
17274SOL    HW256670   6.057   1.411   1.941
17275SOL     OW56671   7.250   1.280   2.519
17275SOL    HW156672   7.349   1.288   2.533
17275SOL    HW256673   7.205   1.364   2.550
17276SOL     OW56674   6.976   0.575   1.940
17276SOL    HW156675   6.922   0.554   2.021
17276SOL    HW256676   7.067   0.534   1.949
17277SOL     OW56677   6.113   0.256   2.190
17277SOL    HW156678   6.140   0.197   2.115
17277SOL    HW256679   6.113   0.351   2.159
17278SOL     OW56680   7.340   1.223   3.450
17278SOL    HW156681   7.431   1.184   3.437
17278SOL    HW256682   7.348   1.319   3.474
17279SOL     OW56683   6.650   1.347   3.202
17279SOL    HW156684   6.570   1.324   3.257
17279SOL    HW256685   6.733   1.321   3.251
17280SOL     OW56686   7.178   1.629   3.487
17280SOL    HW156687   7.205   1.663   3.397
17280SOL    HW256688   7.257   1.591   3.533
17281SOL     OW56689   6.697   1.195   2.962
17281SOL    HW156690   6.657   1.239   3.043
17281SOL    HW256691   6.656   1.232   2.879
17282SOL     OW56692   7.224   1.099   2.941
17282SOL    HW156693   7.229   1.180   3.000
17282SOL    HW256694   7.138   1.101   2.890
17283SOL     OW56695   6.566   1.116   3.581
17283SOL    HW156696   6.467   1.122   3.591
17283SOL    HW256697   6.589   1.036   3.525
17284SOL     OW56698   6.291   1.050   2.230
17284SOL    HW156699   6.277   1.057   2.329
17284SOL    HW256700   6.375   0.999   2.212
17285SOL     OW56701   5.996   0.813   3.113
17285SOL    HW156702   6.082   0.825   3.163
17285SOL    HW256703   5.954   0.726   3.140
17286SOL     OW56704   5.650   1.564   3.193
17286SOL    HW156705   5.604   1.646   3.159
17286SOL    HW256706   5.748   1.583   3.202
17287SOL     OW56707   5.953   1.100   2.363
17287SOL    HW156708   5.946   1.183   2.307
17287SOL    HW256709   5.957   1.020   2.303
17288SOL     OW56710   6.152   0.537   2.727
17288SOL    HW156711   6.164   0.603   2.653
17288SOL    HW256712   6.198   0.571   2.810
17289SOL     OW56713   6.838   1.348   2.250
17289SOL    HW156714   6.888   1.425   2.290
17289SOL    HW256715   6.743   1.350   2.282
17290SOL     OW56716   6.858   1.445   3.004
17290SOL    HW156717   6.905   1.458   3.091
17290SOL    HW256718   6.792   1.371   3.013
17291SOL     OW56719   7.168   0.639   2.334
17291SOL    HW156720   7.137   0.700   2.407
17291SOL    HW256721   7.218   0.691   2.265
17292SOL     OW56722   5.940   1.510   3.191
17292SOL    HW156723   5.919   1.466   3.104
17292SOL    HW256724   6.037   1.536   3.194
17293SOL     OW56725   5.988   0.751   3.460
17293SOL    HW156726   6.056   0.806   3.413
17293SOL    HW256727   6.028   0.663   3.487
17294SOL     OW56728   7.173   0.779   3.532
17294SOL    HW156729   7.081   0.817   3.527
17294SOL    HW256730   7.233   0.826   3.467
17295SOL     OW56731   6.599   0.105   3.632
17295SOL    HW156732   6.605   0.190   3.580
17295SOL    HW256733   6.631   0.029   3.575
17296SOL     OW56734   6.090   0.050   3.602
17296SOL    HW156735   6.048  -0.007   3.532
17296SOL    HW256736   6.024   0.119   3.634
17297SOL     OW56737   6.159   0.870   2.891
17297SOL    HW156738   6.203   0.959   2.882
17297SOL    HW256739   6.096   0.870   2.968
17298SOL     OW56740   6.946   0.862   2.907
17298SOL    HW156741   6.871   0.862   2.841
17298SOL    HW256742   6.983   0.770   2.916
17299SOL     OW56743   6.795   0.525   2.137
17299SOL    HW156744   6.808   0.441   2.191
17299SOL    HW256745   6.766   0.599   2.197
17300SOL     OW56746   5.893   0.213   3.093
17300SOL    HW156747   5.870   0.250   3.183
17300SOL    HW256748   5.863   0.118   3.087
17301SOL     OW56749   5.623   1.310   3.144
17301SOL    HW156750   5.676   1.261   3.212
17301SOL    HW256751   5.645   1.408   3.149
17302SOL     OW56752   6.318   0.634   2.926
17302SOL    HW156753   6.377   0.608   2.850
17302SOL    HW256754   6.290   0.730   2.915
17303SOL     OW56755   7.314   0.935   3.716
17303SOL    HW156756   7.268   0.928   3.627
17303SOL    HW256757   7.252   0.979   3.782
17304SOL     OW56758   7.208   0.367   2.236
17304SOL    HW156759   7.210   0.291   2.300
17304SOL    HW256760   7.160   0.444   2.276
17305SOL     OW56761   6.609   0.766   2.828
17305SOL    HW156762   6.624   0.787   2.924
17305SOL    HW256763   6.579   0.671   2.819
17306SOL     OW56764   6.566   1.573   3.562
17306SOL    HW156765   6.546   1.617   3.474
17306SOL    HW256766   6.605   1.482   3.546
17307SOL     OW56767   7.445   1.518   3.467
17307SOL    HW156768   7.459   1.545   3.372
17307SOL    HW256769   7.528   1.540   3.520
17308SOL     OW56770   5.936   0.898   3.666
17308SOL    HW156771   6.012   0.942   3.714
17308SOL    HW256772   5.971   0.851   3.584
17309SOL     OW56773   7.126   0.274   1.987
17309SOL    HW156774   7.065   0.199   2.010
17309SOL    HW256775   7.148   0.326   2.070
17310SOL     OW56776   6.889   0.838   1.904
17310SOL    HW156777   6.923   0.745   1.919
17310SOL    HW256778   6.907   0.865   1.809
17311SOL     OW56779   6.654   1.333   2.711
17311SOL    HW156780   6.661   1.249   2.656
17311SOL    HW256781   6.716   1.402   2.675
17312SOL     OW56782   5.905   0.810   2.811
17312SOL    HW156783   5.998   0.846   2.816
17312SOL    HW256784   5.899   0.725   2.863
17313SOL     OW56785   6.724   0.380   3.540
17313SOL    HW156786   6.679   0.443   3.604
17313SOL    HW256787   6.817   0.411   3.523
17314SOL     OW56788   5.594   1.326   2.062
17314SOL    HW156789   5.501   1.347   2.031
17314SOL    HW256790   5.604   1.227   2.075
17315SOL     OW56791   5.674   1.801   2.789
17315SOL    HW156792   5.632   1.715   2.762
17315SOL    HW256793   5.768   1.804   2.755
17316SOL     OW56794   6.090   1.568   2.772
17316SOL    HW156795   6.156   1.642   2.781
17316SOL    HW256796   6.134   1.489   2.730
17317SOL     OW56797   6.588   0.796   3.100
17317SOL    HW156798   6.629   0.764   3.186
17317SOL    HW256799   6.492   0.769   3.097
17318SOL     OW56800   5.626   0.544   2.976
17318SOL    HW156801   5.711   0.511   2.935
17318SOL    HW256802   5.639   0.559   3.074
17319SOL     OW56803   5.775   0.520   3.584
17319SOL    HW156804   5.834   0.480   3.514
17319SOL    HW256805   5.717   0.591   3.543
17320SOL     OW56806   6.955   0.950   3.522
17320SOL    HW156807   6.994   1.039   3.542
17320SOL    HW256808   6.965   0.930   3.425
17321SOL     OW56809   6.401   0.572   2.187
17321SOL    HW156810   6.408   0.483   2.141
17321SOL    HW256811   6.307   0.606   2.179
17322SOL     OW56812   7.243   0.604   3.068
17322SOL    HW156813   7.205   0.535   3.130
17322SOL    HW256814   7.325   0.568   3.024
17323SOL     OW56815   5.838   1.564   3.606
17323SOL    HW156816   5.808   1.621   3.682
17323SOL    HW256817   5.831   1.467   3.632
17324SOL     OW56818   6.257   0.464   3.131
17324SOL    HW156819   6.223   0.375   3.101
17324SOL    HW256820   6.283   0.518   3.051
17325SOL     OW56821   6.516   1.678   3.327
17325SOL    HW156822   6.492   1.660   3.232
17325SOL    HW256823   6.546   1.772   3.337
17326SOL     OW56824   6.059   0.500   2.053
17326SOL    HW156825   6.120   0.580   2.057
17326SOL    HW256826   5.964   0.531   2.060
17327SOL     OW56827   5.745   1.137   3.328
17327SOL    HW156828   5.767   1.076   3.404
17327SOL    HW256829   5.755   1.088   3.242
17328SOL     OW56830   6.933   1.059   3.096
17328SOL    HW156831   6.957   0.996   3.022
17328SOL    HW256832   6.843   1.099   3.078
17329SOL     OW56833   6.888   0.855   2.171
17329SOL    HW156834   6.802   0.824   2.213
17329SOL    HW256835   6.884   0.841   2.072
17330SOL     OW56836   7.345   1.747   3.016
17330SOL    HW156837   7.406   1.777   2.943
17330SOL    HW256838   7.307   1.658   2.994
17331SOL     OW56839   6.838   1.731   2.990
17331SOL    HW156840   6.922   1.736   2.936
17331SOL    HW256841   6.815   1.635   3.008
17332SOL     OW56842   5.669   1.258   2.884
17332SOL    HW156843   5.664   1.257   2.984
17332SOL    HW256844   5.586   1.217   2.846
17333SOL     OW56845   6.274   1.662   3.578
17333SOL    HW156846   6.218   1.743   3.587
17333SOL    HW256847   6.326   1.666   3.492
17334SOL     OW56848   7.312   0.135   2.385
17334SOL    HW156849   7.385   0.118   2.318
17334SOL    HW256850   7.281   0.048   2.423
17335SOL     OW56851   6.974   1.573   2.339
17335SOL    HW156852   7.041   1.585   2.265
17335SOL    HW256853   6.934   1.662   2.362
17336SOL     OW56854   5.716   1.794   3.713
17336SOL    HW156855   5.675   1.720   3.766
17336SOL    HW256856   5.780   1.845   3.771
17337SOL     OW56857   6.866   0.927   2.534
17337SOL    HW156858   6.926   0.846   2.536
17337SOL    HW256859   6.906   0.996   2.474
17338SOL     OW56860   6.416   1.273   3.284
17338SOL    HW156861   6.411   1.306   3.379
17338SOL    HW256862   6.330   1.292   3.238
17339SOL     OW56863   6.258   1.616   2.016
17339SOL    HW156864   6.267   1.626   1.917
17339SOL    HW256865   6.218   1.527   2.037
17340SOL     OW56866   7.236   1.720   3.256
17340SOL    HW156867   7.289   1.730   3.172
17340SOL    HW256868   7.209   1.810   3.290
17341SOL     OW56869   7.427   0.175   2.825
17341SOL    HW156870   7.466   0.090   2.789
17341SOL    HW256871   7.329   0.177   2.806
17342SOL     OW56872   6.780   1.612   1.893
17342SOL    HW156873   6.786   1.519   1.930
17342SOL    HW256874   6.721   1.612   1.813
17343SOL     OW56875   6.408   1.002   3.234
17343SOL    HW156876   6.448   1.001   3.142
17343SOL    HW256877   6.418   1.094   3.274
17344SOL     OW56878   6.502   0.910   2.153
17344SOL    HW156879   6.565   0.948   2.085
17344SOL    HW256880   6.542   0.827   2.192
17345SOL     OW56881   7.090   1.607   1.906
17345SOL    HW156882   6.998   1.644   1.913
17345SOL    HW256883   7.128   1.627   1.816
17346SOL     OW56884   5.958   1.288   3.352
17346SOL    HW156885   5.945   1.381   3.318
17346SOL    HW256886   5.874   1.236   3.339
17347SOL     OW56887   7.200   1.292   3.151
17347SOL    HW156888   7.260   1.295   3.231
17347SOL    HW256889   7.125   1.356   3.164
17348SOL     OW56890   6.625   1.098   2.558
17348SOL    HW156891   6.555   1.051   2.612
17348SOL    HW256892   6.684   1.030   2.515
17349SOL     OW56893   6.176   1.487   2.353
17349SOL    HW156894   6.218   1.429   2.283
17349SOL    HW256895   6.132   1.566   2.309
17350SOL     OW56896   7.295   0.385   3.243
17350SOL    HW156897   7.368   0.454   3.247
17350SOL    HW256898   7.323   0.310   3.184
17351SOL     OW56899   5.841   1.348   2.152
17351SOL    HW156900   5.745   1.349   2.125
17351SOL    HW256901   5.853   1.401   2.236
17352SOL     OW56902   5.691   1.013   3.588
17352SOL    HW156903   5.614   0.980   3.642
17352SOL    HW256904   5.776   0.983   3.630
17353SOL     OW56905   6.258   0.203   3.351
17353SOL    HW156906   6.348   0.187   3.311
17353SOL    HW256907   6.266   0.208   3.450
17354SOL     OW56908   5.661   0.345   1.895
17354SOL    HW156909   5.569   0.317   1.866
17354SOL    HW256910   5.692   0.422   1.839
17355SOL     OW56911   7.026   0.856   3.260
17355SOL    HW156912   6.969   0.908   3.197
17355SOL    HW256913   7.122   0.868   3.236
17356SOL     OW56914   5.658   0.166   2.180
17356SOL    HW156915   5.641   0.249   2.126
17356SOL    HW256916   5.748   0.129   2.158
17357SOL     OW56917   6.769   1.335   1.981
17357SOL    HW156918   6.670   1.324   1.983
17357SOL    HW256919   6.803   1.350   2.074
17358SOL     OW56920   6.199   0.842   3.293
17358SOL    HW156921   6.255   0.923   3.276
17358SOL    HW256922   6.258   0.762   3.296
17359SOL     OW56923   7.079   1.767   2.821
17359SOL    HW156924   7.112   1.831   2.752
17359SOL    HW256925   7.145   1.761   2.896
17360SOL     OW56926   6.302   0.565   3.570
17360SOL    HW156927   6.321   0.630   3.644
17360SOL    HW256928   6.362   0.485   3.579
17361SOL     OW56929   7.036   1.220   3.495
17361SOL    HW156930   7.027   1.210   3.594
17361SOL    HW256931   7.132   1.213   3.469
17362SOL     OW56932   5.976   1.741   3.422
17362SOL    HW156933   5.885   1.782   3.420
17362SOL    HW256934   5.969   1.647   3.454
17363SOL     OW56935   7.260   0.883   3.116
17363SOL    HW156936   7.233   0.794   3.079
17363SOL    HW256937   7.261   0.951   3.043
17364SOL     OW56938   6.811   0.325   2.311
17364SOL    HW156939   6.876   0.251   2.300
17364SOL    HW256940   6.831   0.375   2.395
17365SOL     OW56941   7.363   0.342   3.504
17365SOL    HW156942   7.346   0.373   3.410
17365SOL    HW256943   7.279   0.305   3.542
17366SOL     OW56944   7.316   0.934   3.379
17366SOL    HW156945   7.354   1.025   3.394
17366SOL    HW256946   7.308   0.917   3.280
17367SOL     OW56947   6.445   1.374   1.878
17367SOL    HW156948   6.399   1.389   1.966
17367SOL    HW256949   6.489   1.459   1.848
17368SOL     OW56950   6.247   1.790   2.815
17368SOL    HW156951   6.201   1.878   2.802
17368SOL    HW256952   6.346   1.802   2.808
17369SOL     OW56953   6.445   0.956   2.723
17369SOL    HW156954   6.499   0.887   2.771
17369SOL    HW256955   6.413   1.025   2.789
17370SOL     OW56956   6.669   0.984   1.949
17370SOL    HW156957   6.646   1.037   1.867
17370SOL    HW256958   6.750   0.928   1.930
17371SOL     OW56959   7.447   1.569   2.713
17371SOL    HW156960   7.376   1.557   2.643
17371SOL    HW256961   7.448   1.490   2.773
17372SOL     OW56962   5.807   1.314   3.706
17372SOL    HW156963   5.742   1.241   3.685
17372SOL    HW256964   5.811   1.328   3.804
17373SOL     OW56965   5.665   1.240   2.515
17373SOL    HW156966   5.664   1.193   2.603
17373SOL    HW256967   5.747   1.212   2.464
17374SOL     OW56968   6.258   1.391   3.486
17374SOL    HW156969   6.180   1.341   3.524
17374SOL    HW256970   6.255   1.486   3.517
17375SOL     OW56971   7.410   0.192   3.089
17375SOL    HW156972   7.406   0.102   3.133
17375SOL    HW256973   7.413   0.181   2.990
17376SOL     OW56974   7.291   1.487   2.966
17376SOL    HW156975   7.198   1.462   2.939
17376SOL    HW256976   7.317   1.437   3.048
17377SOL     OW56977   5.903   0.547   3.142
17377SOL    HW156978   5.941   0.488   3.214
17377SOL    HW256979   5.943   0.521   3.054
17378SOL     OW56980   6.398   1.586   2.549
17378SOL    HW156981   6.430   1.596   2.455
17378SOL    HW256982   6.319   1.524   2.551
17379SOL     OW56983   7.010   0.214   2.974
17379SOL    HW156984   7.062   0.149   3.029
17379SOL    HW256985   6.961   0.277   3.035
17380SOL     OW56986   6.356   1.330   2.163
17380SOL    HW156987   6.310   1.243   2.180
17380SOL    HW256988   6.447   1.327   2.204
17381SOL     OW56989   6.204   1.567   3.146
17381SOL    HW156990   6.199   1.649   3.203
17381SOL    HW256991   6.293   1.564   3.101
17382SOL     OW56992   6.938   0.052   2.030
17382SOL    HW156993   6.973   0.011   1.946
17382SOL    HW256994   6.848   0.014   2.050
17383SOL     OW56995   6.886   0.453   2.553
17383SOL    HW156996   6.827   0.533   2.557
17383SOL    HW256997   6.901   0.418   2.646
17384SOL     OW56998   7.179   0.221   2.744
17384SOL    HW156999   7.095   0.220   2.798
17384SOL    HW257000   7.181   0.304   2.688
17385SOL     OW57001   5.625   1.077   2.162
17385SOL    HW157002   5.724   1.066   2.153
17385SOL    HW257003   5.585   0.991   2.194
17386SOL     OW57004   6.461   1.646   2.199
17386SOL    HW157005   6.384   1.611   2.145
17386SOL    HW257006   6.429   1.717   2.261
17387SOL     OW57007   5.816   0.628   3.837
17387SOL    HW157008   5.723   0.626   3.874
17387SOL    HW257009   5.817   0.589   3.745
17388SOL     OW57010   5.811   0.275   4.720
17388SOL    HW157011   5.846   0.258   4.812
17388SOL    HW257012   5.723   0.230   4.708
17389SOL     OW57013   5.605   0.368   4.371
17389SOL    HW157014   5.523   0.411   4.410
17389SOL    HW257015   5.577   0.295   4.308
17390SOL     OW57016   6.155   1.275   4.889
17390SOL    HW157017   6.062   1.268   4.852
17390SOL    HW257018   6.166   1.364   4.933
17391SOL     OW57019   6.721   0.703   4.441
17391SOL    HW157020   6.778   0.781   4.416
17391SOL    HW257021   6.661   0.729   4.517
17392SOL     OW57022   7.341   0.607   3.955
17392SOL    HW157023   7.329   0.594   3.856
17392SOL    HW257024   7.311   0.526   4.004
17393SOL     OW57025   6.354   1.144   4.747
17393SOL    HW157026   6.276   1.161   4.807
17393SOL    HW257027   6.388   1.231   4.711
17394SOL     OW57028   6.271   1.012   4.389
17394SOL    HW157029   6.340   0.996   4.459
17394SOL    HW257030   6.198   1.069   4.427
17395SOL     OW57031   6.272   1.161   5.527
17395SOL    HW157032   6.332   1.240   5.541
17395SOL    HW257033   6.186   1.192   5.486
17396SOL     OW57034   5.921   1.435   4.785
17396SOL    HW157035   5.843   1.404   4.732
17396SOL    HW257036   5.979   1.493   4.728
17397SOL     OW57037   7.046   1.505   5.063
17397SOL    HW157038   7.070   1.599   5.089
17397SOL    HW257039   7.030   1.451   5.145
17398SOL     OW57040   6.024   0.392   5.223
17398SOL    HW157041   6.106   0.336   5.232
17398SOL    HW257042   5.943   0.334   5.227
17399SOL     OW57043   7.189   0.447   4.461
17399SOL    HW157044   7.115   0.493   4.411
17399SOL    HW257045   7.240   0.515   4.514
17400SOL     OW57046   5.817   1.713   4.207
17400SOL    HW157047   5.851   1.790   4.261
17400SOL    HW257048   5.861   1.713   4.117
17401SOL     OW57049   6.713   1.341   5.414
17401SOL    HW157050   6.760   1.341   5.502
17401SOL    HW257051   6.665   1.254   5.403
17402SOL     OW57052   5.816   1.434   4.262
17402SOL    HW157053   5.790   1.530   4.262
17402SOL    HW257054   5.745   1.380   4.307
17403SOL     OW57055   5.826   1.091   4.610
17403SOL    HW157056   5.840   1.007   4.662
17403SOL    HW257057   5.771   1.155   4.665
17404SOL     OW57058   6.206   1.786   5.163
17404SOL    HW157059   6.114   1.769   5.198
17404SOL    HW257060   6.234   1.878   5.189
17405SOL     OW57061   6.192   0.964   3.847
17405SOL    HW157062   6.199   1.048   3.793
17405SOL    HW257063   6.238   0.977   3.935
17406SOL     OW57064   7.180   0.114   5.204
17406SOL    HW157065   7.162   0.181   5.132
17406SOL    HW257066   7.177   0.160   5.293
17407SOL     OW57067   5.708   0.643   4.287
17407SOL    HW157068   5.663   0.555   4.304
17407SOL    HW257069   5.707   0.697   4.371
17408SOL     OW57070   7.428   1.767   4.083
17408SOL    HW157071   7.482   1.738   4.163
17408SOL    HW257072   7.458   1.857   4.054
17409SOL     OW57073   5.613   1.596   3.841
17409SOL    HW157074   5.594   1.500   3.862
17409SOL    HW257075   5.580   1.654   3.916
17410SOL     OW57076   7.275   0.922   4.336
17410SOL    HW157077   7.370   0.893   4.344
17410SOL    HW257078   7.267   0.987   4.261
17411SOL     OW57079   7.227   1.108   4.156
17411SOL    HW157080   7.313   1.110   4.104
17411SOL    HW257081   7.241   1.155   4.244
17412SOL     OW57082   5.699   0.737   5.321
17412SOL    HW157083   5.787   0.724   5.366
17412SOL    HW257084   5.686   0.834   5.299
17413SOL     OW57085   6.199   1.365   4.450
17413SOL    HW157086   6.150   1.278   4.459
17413SOL    HW257087   6.176   1.408   4.363
17414SOL     OW57088   6.879   1.228   5.147
17414SOL    HW157089   6.916   1.155   5.089
17414SOL    HW257090   6.931   1.233   5.232
17415SOL     OW57091   6.395   0.004   4.226
17415SOL    HW157092   6.435   0.095   4.217
17415SOL    HW257093   6.295   0.012   4.232
17416SOL     OW57094   5.783   0.976   4.988
17416SOL    HW157095   5.872   0.931   4.974
17416SOL    HW257096   5.710   0.911   4.969
17417SOL     OW57097   7.111   0.999   3.914
17417SOL    HW157098   7.048   0.923   3.927
17417SOL    HW257099   7.159   1.017   4.000
17418SOL     OW57100   6.773   1.792   5.340
17418SOL    HW157101   6.797   1.852   5.264
17418SOL    HW257102   6.780   1.697   5.310
17419SOL     OW57103   5.903   0.251   5.525
17419SOL    HW157104   5.974   0.322   5.531
17419SOL    HW257105   5.815   0.290   5.553
17420SOL     OW57106   7.253   1.714   4.296
17420SOL    HW157107   7.212   1.691   4.208
17420SOL    HW257108   7.235   1.640   4.361
17421SOL     OW57109   6.184   0.729   3.994
17421SOL    HW157110   6.208   0.798   3.926
17421SOL    HW257111   6.106   0.762   4.048
17422SOL     OW57112   6.867   0.345   4.668
17422SOL    HW157113   6.781   0.295   4.655
17422SOL    HW257114   6.929   0.291   4.724
17423SOL     OW57115   7.162   1.662   4.031
17423SOL    HW157116   7.251   1.708   4.034
17423SOL    HW257117   7.141   1.638   3.936
17424SOL     OW57118   6.980   0.469   5.398
17424SOL    HW157119   6.960   0.512   5.486
17424SOL    HW257120   7.058   0.407   5.407
17425SOL     OW57121   6.559   0.890   5.296
17425SOL    HW157122   6.605   0.806   5.267
17425SOL    HW257123   6.503   0.924   5.221
17426SOL     OW57124   6.577   0.410   4.966
17426SOL    HW157125   6.500   0.444   5.020
17426SOL    HW257126   6.543   0.359   4.887
17427SOL     OW57127   6.627   0.701   4.153
17427SOL    HW157128   6.653   0.697   4.249
17427SOL    HW257129   6.542   0.650   4.139
17428SOL     OW57130   5.662   0.811   4.513
17428SOL    HW157131   5.761   0.799   4.522
17428SOL    HW257132   5.638   0.906   4.534
17429SOL     OW57133   5.716   1.821   5.295
17429SOL    HW157134   5.706   1.806   5.394
17429SOL    HW257135   5.630   1.857   5.259
17430SOL     OW57136   6.451   0.348   3.919
17430SOL    HW157137   6.510   0.411   3.870
17430SOL    HW257138   6.470   0.254   3.890
17431SOL     OW57139   7.305   0.585   5.555
17431SOL    HW157140   7.279   0.674   5.519
17431SOL    HW257141   7.303   0.517   5.482
17432SOL     OW57142   6.948   1.144   4.269
17432SOL    HW157143   7.031   1.115   4.221
17432SOL    HW257144   6.899   1.211   4.213
17433SOL     OW57145   6.136   0.196   4.609
17433SOL    HW157146   6.131   0.191   4.709
17433SOL    HW257147   6.138   0.292   4.580
17434SOL     OW57148   5.937   1.801   4.577
17434SOL    HW157149   5.987   1.715   4.583
17434SOL    HW257150   6.002   1.878   4.574
17435SOL     OW57151   7.381   1.066   4.597
17435SOL    HW157152   7.319   1.051   4.521
17435SOL    HW257153   7.329   1.077   4.682
17436SOL     OW57154   6.813   1.550   5.230
17436SOL    HW157155   6.819   1.473   5.294
17436SOL    HW257156   6.761   1.524   5.150
17437SOL     OW57157   5.907   0.943   3.966
17437SOL    HW157158   5.989   0.982   3.924
17437SOL    HW257159   5.880   0.861   3.917
17438SOL     OW57160   7.044   0.735   4.452
17438SOL    HW157161   7.039   0.670   4.527
17438SOL    HW257162   7.124   0.794   4.465
17439SOL     OW57163   6.047   1.266   5.451
17439SOL    HW157164   5.997   1.267   5.365
17439SOL    HW257165   5.984   1.248   5.527
17440SOL     OW57166   5.788   0.285   5.222
17440SOL    HW157167   5.708   0.345   5.209
17440SOL    HW257168   5.778   0.236   5.308
17441SOL     OW57169   7.218   1.377   3.805
17441SOL    HW157170   7.186   1.471   3.795
17441SOL    HW257171   7.142   1.314   3.793
17442SOL     OW57172   6.050   1.743   4.047
17442SOL    HW157173   6.083   1.782   4.133
17442SOL    HW257174   6.126   1.736   3.982
17443SOL     OW57175   6.986   0.107   4.150
17443SOL    HW157176   6.962   0.070   4.060
17443SOL    HW257177   7.085   0.123   4.154
17444SOL     OW57178   5.835   1.785   4.965
17444SOL    HW157179   5.892   1.720   5.015
17444SOL    HW257180   5.819   1.752   4.872
17445SOL     OW57181   6.526   1.698   4.628
17445SOL    HW157182   6.606   1.641   4.649
17445SOL    HW257183   6.477   1.658   4.551
17446SOL     OW57184   5.968   0.700   4.204
17446SOL    HW157185   6.013   0.610   4.201
17446SOL    HW257186   5.874   0.689   4.237
17447SOL     OW57187   7.133   0.222   5.453
17447SOL    HW157188   7.128   0.259   5.545
17447SOL    HW257189   7.061   0.153   5.441
17448SOL     OW57190   6.200   0.122   3.841
17448SOL    HW157191   6.298   0.100   3.848
17448SOL    HW257192   6.169   0.105   3.748
17449SOL     OW57193   6.367   0.264   5.473
17449SOL    HW157194   6.434   0.203   5.516
17449SOL    HW257195   6.294   0.283   5.538
17450SOL     OW57196   6.474   1.514   4.919
17450SOL    HW157197   6.451   1.489   4.825
17450SOL    HW257198   6.535   1.445   4.958
17451SOL     OW57199   6.937   0.590   5.157
17451SOL    HW157200   6.965   0.547   5.242
17451SOL    HW257201   6.962   0.686   5.158
17452SOL     OW57202   6.389   1.402   4.648
17452SOL    HW157203   6.479   1.416   4.606
17452SOL    HW257204   6.318   1.404   4.577
17453SOL     OW57205   6.508   0.503   4.623
17453SOL    HW157206   6.483   0.494   4.527
17453SOL    HW257207   6.556   0.421   4.654
17454SOL     OW57208   6.125   0.064   4.236
17454SOL    HW157209   6.044   0.065   4.294
17454SOL    HW257210   6.128   0.147   4.181
17455SOL     OW57211   5.883   0.035   3.895
17455SOL    HW157212   5.932   0.119   3.874
17455SOL    HW257213   5.945  -0.030   3.940
17456SOL     OW57214   6.521   0.236   4.204
17456SOL    HW157215   6.473   0.277   4.126
17456SOL    HW257216   6.620   0.234   4.185
17457SOL     OW57217   6.662   0.683   5.188
17457SOL    HW157218   6.582   0.622   5.191
17457SOL    HW257219   6.743   0.630   5.164
17458SOL     OW57220   6.813   1.570   4.517
17458SOL    HW157221   6.834   1.644   4.452
17458SOL    HW257222   6.881   1.570   4.590
17459SOL     OW57223   6.045   1.152   4.465
17459SOL    HW157224   5.974   1.125   4.530
17459SOL    HW257225   6.019   1.124   4.372
17460SOL     OW57226   6.857   1.797   4.315
17460SOL    HW157227   6.901   1.861   4.251
17460SOL    HW257228   6.807   1.849   4.385
17461SOL     OW57229   6.618   0.549   3.740
17461SOL    HW157230   6.577   0.631   3.701
17461SOL    HW257231   6.682   0.575   3.813
17462SOL     OW57232   5.664   0.556   5.110
17462SOL    HW157233   5.756   0.555   5.069
17462SOL    HW257234   5.658   0.630   5.177
17463SOL     OW57235   6.147   0.222   4.871
17463SOL    HW157236   6.185   0.138   4.908
17463SOL    HW257237   6.059   0.241   4.915
17464SOL     OW57238   6.452   0.454   4.366
17464SOL    HW157239   6.420   0.526   4.304
17464SOL    HW257240   6.476   0.373   4.313
17465SOL     OW57241   6.603   0.039   4.477
17465SOL    HW157242   6.531   0.044   4.408
17465SOL    HW257243   6.579  -0.030   4.546
17466SOL     OW57244   7.015   1.173   4.591
17466SOL    HW157245   6.960   1.089   4.584
17466SOL    HW257246   7.041   1.202   4.499
17467SOL     OW57247   7.052   0.590   4.716
17467SOL    HW157248   7.022   0.495   4.723
17467SOL    HW257249   7.125   0.606   4.782
17468SOL     OW57250   7.443   0.833   4.101
17468SOL    HW157251   7.485   0.769   4.165
17468SOL    HW257252   7.405   0.782   4.023
17469SOL     OW57253   6.074   1.385   3.898
17469SOL    HW157254   5.987   1.370   3.945
17469SOL    HW257255   6.057   1.411   3.803
17470SOL     OW57256   6.976   0.575   3.802
17470SOL    HW157257   6.922   0.554   3.883
17470SOL    HW257258   7.067   0.534   3.811
17471SOL     OW57259   6.113   0.256   4.052
17471SOL    HW157260   6.140   0.197   3.977
17471SOL    HW257261   6.113   0.351   4.021
17472SOL     OW57262   7.340   1.223   5.312
17472SOL    HW157263   7.431   1.184   5.299
17472SOL    HW257264   7.348   1.319   5.336
17473SOL     OW57265   6.650   1.347   5.064
17473SOL    HW157266   6.570   1.324   5.119
17473SOL    HW257267   6.733   1.321   5.113
17474SOL     OW57268   7.178   1.629   5.349
17474SOL    HW157269   7.205   1.663   5.259
17474SOL    HW257270   7.257   1.591   5.395
17475SOL     OW57271   6.697   1.195   4.824
17475SOL    HW157272   6.657   1.239   4.905
17475SOL    HW257273   6.656   1.232   4.741
17476SOL     OW57274   6.501   0.089   5.126
17476SOL    HW157275   6.526   0.069   5.031
17476SOL    HW257276   6.573   0.145   5.168
17477SOL     OW57277   6.566   1.116   5.443
17477SOL    HW157278   6.467   1.122   5.453
17477SOL    HW257279   6.589   1.036   5.387
17478SOL     OW57280   6.291   1.050   4.092
17478SOL    HW157281   6.277   1.057   4.191
17478SOL    HW257282   6.375   0.999   4.074
17479SOL     OW57283   5.996   0.813   4.975
17479SOL    HW157284   6.082   0.825   5.025
17479SOL    HW257285   5.954   0.726   5.002
17480SOL     OW57286   6.860   0.386   4.986
17480SOL    HW157287   6.881   0.460   5.050
17480SOL    HW257288   6.771   0.403   4.943
17481SOL     OW57289   5.650   1.564   5.055
17481SOL    HW157290   5.604   1.646   5.021
17481SOL    HW257291   5.748   1.583   5.064
17482SOL     OW57292   5.953   1.100   4.225
17482SOL    HW157293   5.946   1.183   4.169
17482SOL    HW257294   5.957   1.020   4.165
17483SOL     OW57295   6.152   0.537   4.589
17483SOL    HW157296   6.164   0.603   4.515
17483SOL    HW257297   6.198   0.571   4.672
17484SOL     OW57298   6.858   1.445   4.866
17484SOL    HW157299   6.905   1.458   4.953
17484SOL    HW257300   6.792   1.371   4.875
17485SOL     OW57301   7.168   0.639   4.196
17485SOL    HW157302   7.137   0.700   4.269
17485SOL    HW257303   7.218   0.691   4.127
17486SOL     OW57304   5.988   0.751   5.322
17486SOL    HW157305   6.056   0.806   5.275
17486SOL    HW257306   6.028   0.663   5.349
17487SOL     OW57307   7.173   0.779   5.394
17487SOL    HW157308   7.081   0.817   5.389
17487SOL    HW257309   7.233   0.826   5.329
17488SOL     OW57310   6.599   0.105   5.494
17488SOL    HW157311   6.605   0.190   5.442
17488SOL    HW257312   6.631   0.029   5.437
17489SOL     OW57313   6.090   0.050   5.464
17489SOL    HW157314   6.048  -0.007   5.394
17489SOL    HW257315   6.024   0.119   5.496
17490SOL     OW57316   6.159   0.870   4.753
17490SOL    HW157317   6.203   0.959   4.744
17490SOL    HW257318   6.096   0.870   4.830
17491SOL     OW57319   6.946   0.862   4.769
17491SOL    HW157320   6.871   0.862   4.703
17491SOL    HW257321   6.983   0.770   4.778
17492SOL     OW57322   6.795   0.525   3.999
17492SOL    HW157323   6.808   0.441   4.053
17492SOL    HW257324   6.766   0.599   4.059
17493SOL     OW57325   5.893   0.213   4.955
17493SOL    HW157326   5.870   0.250   5.045
17493SOL    HW257327   5.863   0.118   4.949
17494SOL     OW57328   5.623   1.310   5.006
17494SOL    HW157329   5.676   1.261   5.074
17494SOL    HW257330   5.645   1.408   5.011
17495SOL     OW57331   6.318   0.634   4.788
17495SOL    HW157332   6.377   0.608   4.712
17495SOL    HW257333   6.290   0.730   4.777
17496SOL     OW57334   7.314   0.935   5.578
17496SOL    HW157335   7.268   0.928   5.489
17496SOL    HW257336   7.252   0.979   5.644
17497SOL     OW57337   5.893   0.063   4.342
17497SOL    HW157338   5.882   0.157   4.375
17497SOL    HW257339   5.888   0.000   4.419
17498SOL     OW57340   7.208   0.367   4.098
17498SOL    HW157341   7.210   0.291   4.162
17498SOL    HW257342   7.160   0.444   4.138
17499SOL     OW57343   6.609   0.766   4.690
17499SOL    HW157344   6.624   0.787   4.786
17499SOL    HW257345   6.579   0.671   4.681
17500SOL     OW57346   6.566   1.573   5.424
17500SOL    HW157347   6.546   1.617   5.336
17500SOL    HW257348   6.605   1.482   5.408
17501SOL     OW57349   7.445   1.518   5.329
17501SOL    HW157350   7.459   1.545   5.234
17501SOL    HW257351   7.528   1.540   5.382
17502SOL     OW57352   5.936   0.898   5.528
17502SOL    HW157353   6.012   0.942   5.576
17502SOL    HW257354   5.971   0.851   5.446
17503SOL     OW57355   7.126   0.274   3.849
17503SOL    HW157356   7.065   0.199   3.872
17503SOL    HW257357   7.148   0.326   3.932
17504SOL     OW57358   6.889   0.838   3.766
17504SOL    HW157359   6.923   0.745   3.781
17504SOL    HW257360   6.907   0.865   3.671
17505SOL     OW57361   6.654   1.333   4.573
17505SOL    HW157362   6.661   1.249   4.518
17505SOL    HW257363   6.716   1.402   4.537
17506SOL     OW57364   5.905   0.810   4.673
17506SOL    HW157365   5.998   0.846   4.678
17506SOL    HW257366   5.899   0.725   4.725
17507SOL     OW57367   5.925   0.509   4.730
17507SOL    HW157368   5.873   0.426   4.713
17507SOL    HW257369   6.002   0.514   4.666
17508SOL     OW57370   6.746   0.207   5.201
17508SOL    HW157371   6.746   0.271   5.278
17508SOL    HW257372   6.774   0.255   5.118
17509SOL     OW57373   5.594   1.326   3.924
17509SOL    HW157374   5.501   1.347   3.893
17509SOL    HW257375   5.604   1.227   3.937
17510SOL     OW57376   5.674   1.801   4.651
17510SOL    HW157377   5.632   1.715   4.624
17510SOL    HW257378   5.768   1.804   4.617
17511SOL     OW57379   6.090   1.568   4.634
17511SOL    HW157380   6.156   1.642   4.643
17511SOL    HW257381   6.134   1.489   4.592
17512SOL     OW57382   6.588   0.796   4.962
17512SOL    HW157383   6.629   0.764   5.048
17512SOL    HW257384   6.492   0.769   4.959
17513SOL     OW57385   5.626   0.544   4.838
17513SOL    HW157386   5.711   0.511   4.797
17513SOL    HW257387   5.639   0.559   4.936
17514SOL     OW57388   5.775   0.520   5.446
17514SOL    HW157389   5.834   0.480   5.376
17514SOL    HW257390   5.717   0.591   5.405
17515SOL     OW57391   6.955   0.950   5.384
17515SOL    HW157392   6.994   1.039   5.404
17515SOL    HW257393   6.965   0.930   5.287
17516SOL     OW57394   6.401   0.572   4.049
17516SOL    HW157395   6.408   0.483   4.003
17516SOL    HW257396   6.307   0.606   4.041
17517SOL     OW57397   7.243   0.604   4.930
17517SOL    HW157398   7.205   0.535   4.992
17517SOL    HW257399   7.325   0.568   4.886
17518SOL     OW57400   5.838   1.564   5.468
17518SOL    HW157401   5.808   1.621   5.544
17518SOL    HW257402   5.831   1.467   5.494
17519SOL     OW57403   6.257   0.464   4.993
17519SOL    HW157404   6.223   0.375   4.963
17519SOL    HW257405   6.283   0.518   4.913
17520SOL     OW57406   6.516   1.678   5.189
17520SOL    HW157407   6.492   1.660   5.094
17520SOL    HW257408   6.546   1.772   5.199
17521SOL     OW57409   6.059   0.500   3.915
17521SOL    HW157410   6.120   0.580   3.919
17521SOL    HW257411   5.964   0.531   3.922
17522SOL     OW57412   5.745   1.137   5.190
17522SOL    HW157413   5.767   1.076   5.266
17522SOL    HW257414   5.755   1.088   5.104
17523SOL     OW57415   6.933   1.059   4.958
17523SOL    HW157416   6.957   0.996   4.884
17523SOL    HW257417   6.843   1.099   4.940
17524SOL     OW57418   6.888   0.855   4.033
17524SOL    HW157419   6.802   0.824   4.075
17524SOL    HW257420   6.884   0.841   3.934
17525SOL     OW57421   7.345   1.747   4.878
17525SOL    HW157422   7.406   1.777   4.805
17525SOL    HW257423   7.307   1.658   4.856
17526SOL     OW57424   6.838   1.731   4.852
17526SOL    HW157425   6.922   1.736   4.798
17526SOL    HW257426   6.815   1.635   4.870
17527SOL     OW57427   5.669   1.258   4.746
17527SOL    HW157428   5.664   1.257   4.846
17527SOL    HW257429   5.586   1.217   4.708
17528SOL     OW57430   6.274   1.662   5.440
17528SOL    HW157431   6.218   1.743   5.449
17528SOL    HW257432   6.326   1.666   5.354
17529SOL     OW57433   6.974   1.573   4.201
17529SOL    HW157434   7.041   1.585   4.127
17529SOL    HW257435   6.934   1.662   4.224
17530SOL     OW57436   5.716   1.794   5.575
17530SOL    HW157437   5.675   1.720   5.628
17530SOL    HW257438   5.780   1.845   5.633
17531SOL     OW57439   6.866   0.927   4.396
17531SOL    HW157440   6.926   0.846   4.398
17531SOL    HW257441   6.906   0.996   4.336
17532SOL     OW57442   6.416   1.273   5.146
17532SOL    HW157443   6.411   1.306   5.241
17532SOL    HW257444   6.330   1.292   5.100
17533SOL     OW57445   6.258   1.616   3.878
17533SOL    HW157446   6.267   1.626   3.779
17533SOL    HW257447   6.218   1.527   3.899
17534SOL     OW57448   7.236   1.720   5.118
17534SOL    HW157449   7.289   1.730   5.034
17534SOL    HW257450   7.209   1.810   5.152
17535SOL     OW57451   7.427   0.175   4.687
17535SOL    HW157452   7.466   0.090   4.651
17535SOL    HW257453   7.329   0.177   4.668
17536SOL     OW57454   5.849   0.326   4.444
17536SOL    HW157455   5.770   0.377   4.410
17536SOL    HW257456   5.840   0.311   4.542
17537SOL     OW57457   6.408   1.002   5.096
17537SOL    HW157458   6.448   1.001   5.004
17537SOL    HW257459   6.418   1.094   5.136
17538SOL     OW57460   6.502   0.910   4.015
17538SOL    HW157461   6.565   0.948   3.947
17538SOL    HW257462   6.542   0.827   4.054
17539SOL     OW57463   5.958   1.288   5.214
17539SOL    HW157464   5.945   1.381   5.180
17539SOL    HW257465   5.874   1.236   5.201
17540SOL     OW57466   6.625   1.098   4.420
17540SOL    HW157467   6.555   1.051   4.474
17540SOL    HW257468   6.684   1.030   4.377
17541SOL     OW57469   6.600   0.236   4.695
17541SOL    HW157470   6.592   0.200   4.602
17541SOL    HW257471   6.598   0.160   4.760
17542SOL     OW57472   6.176   1.487   4.215
17542SOL    HW157473   6.218   1.429   4.145
17542SOL    HW257474   6.132   1.566   4.171
17543SOL     OW57475   7.295   0.385   5.105
17543SOL    HW157476   7.368   0.454   5.109
17543SOL    HW257477   7.323   0.310   5.046
17544SOL     OW57478   5.841   1.348   4.014
17544SOL    HW157479   5.745   1.349   3.987
17544SOL    HW257480   5.853   1.401   4.098
17545SOL     OW57481   5.691   1.013   5.450
17545SOL    HW157482   5.614   0.980   5.504
17545SOL    HW257483   5.776   0.983   5.492
17546SOL     OW57484   6.258   0.203   5.213
17546SOL    HW157485   6.348   0.187   5.173
17546SOL    HW257486   6.266   0.208   5.312
17547SOL     OW57487   5.661   0.345   3.757
17547SOL    HW157488   5.569   0.317   3.728
17547SOL    HW257489   5.692   0.422   3.701
17548SOL     OW57490   7.026   0.856   5.122
17548SOL    HW157491   6.969   0.908   5.059
17548SOL    HW257492   7.122   0.868   5.098
17549SOL     OW57493   5.658   0.166   4.042
17549SOL    HW157494   5.641   0.249   3.988
17549SOL    HW257495   5.748   0.129   4.020
17550SOL     OW57496   6.199   0.842   5.155
17550SOL    HW157497   6.255   0.923   5.138
17550SOL    HW257498   6.258   0.762   5.158
17551SOL     OW57499   7.036   1.220   5.357
17551SOL    HW157500   7.027   1.210   5.456
17551SOL    HW257501   7.132   1.213   5.331
17552SOL     OW57502   5.976   1.741   5.284
17552SOL    HW157503   5.885   1.782   5.282
17552SOL    HW257504   5.969   1.647   5.316
17553SOL     OW57505   7.260   0.883   4.978
17553SOL    HW157506   7.233   0.794   4.941
17553SOL    HW257507   7.261   0.951   4.905
17554SOL     OW57508   6.811   0.325   4.173
17554SOL    HW157509   6.876   0.251   4.162
17554SOL    HW257510   6.831   0.375   4.257
17555SOL     OW57511   6.180   0.745   4.376
17555SOL    HW157512   6.230   0.830   4.357
17555SOL    HW257513   6.092   0.747   4.328
17556SOL     OW57514   7.363   0.342   5.366
17556SOL    HW157515   7.346   0.373   5.272
17556SOL    HW257516   7.279   0.305   5.404
17557SOL     OW57517   7.316   0.934   5.241
17557SOL    HW157518   7.354   1.025   5.256
17557SOL    HW257519   7.308   0.917   5.142
17558SOL     OW57520   6.445   1.374   3.740
17558SOL    HW157521   6.399   1.389   3.828
17558SOL    HW257522   6.489   1.459   3.710
17559SOL     OW57523   6.247   1.790   4.677
17559SOL    HW157524   6.201   1.878   4.664
17559SOL    HW257525   6.346   1.802   4.670
17560SOL     OW57526   6.445   0.956   4.585
17560SOL    HW157527   6.499   0.887   4.633
17560SOL    HW257528   6.413   1.025   4.651
17561SOL     OW57529   6.669   0.984   3.811
17561SOL    HW157530   6.646   1.037   3.729
17561SOL    HW257531   6.750   0.928   3.792
17562SOL     OW57532   5.807   1.314   5.568
17562SOL    HW157533   5.742   1.241   5.547
17562SOL    HW257534   5.811   1.328   5.666
17563SOL     OW57535   5.665   1.240   4.377
17563SOL    HW157536   5.664   1.193   4.465
17563SOL    HW257537   5.747   1.212   4.326
17564SOL     OW57538   6.258   1.391   5.348
17564SOL    HW157539   6.180   1.341   5.386
17564SOL    HW257540   6.255   1.486   5.379
17565SOL     OW57541   7.410   0.192   4.951
17565SOL    HW157542   7.406   0.102   4.995
17565SOL    HW257543   7.413   0.181   4.852
17566SOL     OW57544   6.014   0.424   4.244
17566SOL    HW157545   6.044   0.352   4.182
17566SOL    HW257546   5.975   0.384   4.327
17567SOL     OW57547   5.903   0.547   5.004
17567SOL    HW157548   5.941   0.488   5.076
17567SOL    HW257549   5.943   0.521   4.916
17568SOL     OW57550   6.398   1.586   4.411
17568SOL    HW157551   6.430   1.596   4.317
17568SOL    HW257552   6.319   1.524   4.413
17569SOL     OW57553   7.010   0.214   4.836
17569SOL    HW157554   7.062   0.149   4.891
17569SOL    HW257555   6.961   0.277   4.897
17570SOL     OW57556   6.587   0.034   4.878
17570SOL    HW157557   6.524  -0.038   4.847
17570SOL    HW257558   6.680  -0.002   4.878
17571SOL     OW57559   6.356   1.330   4.025
17571SOL    HW157560   6.310   1.243   4.042
17571SOL    HW257561   6.447   1.327   4.066
17572SOL     OW57562   6.204   1.567   5.008
17572SOL    HW157563   6.199   1.649   5.065
17572SOL    HW257564   6.293   1.564   4.963
17573SOL     OW57565   6.938   0.052   3.892
17573SOL    HW157566   6.973   0.011   3.808
17573SOL    HW257567   6.848   0.014   3.912
17574SOL     OW57568   6.886   0.453   4.415
17574SOL    HW157569   6.827   0.533   4.419
17574SOL    HW257570   6.901   0.418   4.508
17575SOL     OW57571   7.179   0.221   4.606
17575SOL    HW157572   7.095   0.220   4.660
17575SOL    HW257573   7.181   0.304   4.550
17576SOL     OW57574   5.625   1.077   4.024
17576SOL    HW157575   5.724   1.066   4.015
17576SOL    HW257576   5.585   0.991   4.056
17577SOL     OW57577   5.816   0.628   5.699
17577SOL    HW157578   5.723   0.626   5.736
17577SOL    HW257579   5.817   0.589   5.607
17578SOL     OW57580   5.605   0.368   6.233
17578SOL    HW157581   5.523   0.411   6.272
17578SOL    HW257582   5.577   0.295   6.170
17579SOL     OW57583   6.155   1.275   6.751
17579SOL    HW157584   6.062   1.268   6.714
17579SOL    HW257585   6.166   1.364   6.795
17580SOL     OW57586   7.141   1.511   6.289
17580SOL    HW157587   7.084   1.495   6.370
17580SOL    HW257588   7.082   1.521   6.209
17581SOL     OW57589   6.721   0.703   6.303
17581SOL    HW157590   6.778   0.781   6.278
17581SOL    HW257591   6.661   0.729   6.379
17582SOL     OW57592   7.341   0.607   5.817
17582SOL    HW157593   7.329   0.594   5.718
17582SOL    HW257594   7.311   0.526   5.866
17583SOL     OW57595   6.436   0.798   7.409
17583SOL    HW157596   6.432   0.874   7.474
17583SOL    HW257597   6.458   0.834   7.318
17584SOL     OW57598   6.271   1.012   6.251
17584SOL    HW157599   6.340   0.996   6.321
17584SOL    HW257600   6.198   1.069   6.289
17585SOL     OW57601   6.272   1.161   7.389
17585SOL    HW157602   6.332   1.240   7.403
17585SOL    HW257603   6.186   1.192   7.348
17586SOL     OW57604   7.046   1.505   6.925
17586SOL    HW157605   7.070   1.599   6.951
17586SOL    HW257606   7.030   1.451   7.007
17587SOL     OW57607   6.024   0.392   7.085
17587SOL    HW157608   6.106   0.336   7.094
17587SOL    HW257609   5.943   0.334   7.089
17588SOL     OW57610   7.189   0.447   6.323
17588SOL    HW157611   7.115   0.493   6.273
17588SOL    HW257612   7.240   0.515   6.376
17589SOL     OW57613   5.817   1.713   6.069
17589SOL    HW157614   5.851   1.790   6.123
17589SOL    HW257615   5.861   1.713   5.979
17590SOL     OW57616   6.713   1.341   7.276
17590SOL    HW157617   6.760   1.341   7.364
17590SOL    HW257618   6.665   1.254   7.265
17591SOL     OW57619   5.826   1.091   6.472
17591SOL    HW157620   5.840   1.007   6.524
17591SOL    HW257621   5.771   1.155   6.527
17592SOL     OW57622   6.206   1.786   7.025
17592SOL    HW157623   6.114   1.769   7.060
17592SOL    HW257624   6.234   1.878   7.051
17593SOL     OW57625   6.192   0.964   5.709
17593SOL    HW157626   6.199   1.048   5.655
17593SOL    HW257627   6.238   0.977   5.797
17594SOL     OW57628   7.180   0.114   7.066
17594SOL    HW157629   7.162   0.181   6.994
17594SOL    HW257630   7.177   0.160   7.155
17595SOL     OW57631   5.708   0.643   6.149
17595SOL    HW157632   5.663   0.555   6.166
17595SOL    HW257633   5.707   0.697   6.233
17596SOL     OW57634   7.428   1.767   5.945
17596SOL    HW157635   7.482   1.738   6.025
17596SOL    HW257636   7.458   1.857   5.916
17597SOL     OW57637   5.613   1.596   5.703
17597SOL    HW157638   5.594   1.500   5.724
17597SOL    HW257639   5.580   1.654   5.778
17598SOL     OW57640   7.275   0.922   6.198
17598SOL    HW157641   7.370   0.893   6.206
17598SOL    HW257642   7.267   0.987   6.123
17599SOL     OW57643   7.227   1.108   6.018
17599SOL    HW157644   7.313   1.110   5.966
17599SOL    HW257645   7.241   1.155   6.106
17600SOL     OW57646   5.699   0.737   7.183
17600SOL    HW157647   5.787   0.724   7.228
17600SOL    HW257648   5.686   0.834   7.161
17601SOL     OW57649   6.199   1.365   6.312
17601SOL    HW157650   6.150   1.278   6.321
17601SOL    HW257651   6.176   1.408   6.225
17602SOL     OW57652   6.879   1.228   7.009
17602SOL    HW157653   6.916   1.155   6.951
17602SOL    HW257654   6.931   1.233   7.094
17603SOL     OW57655   6.395   0.004   6.088
17603SOL    HW157656   6.435   0.095   6.079
17603SOL    HW257657   6.295   0.012   6.094
17604SOL     OW57658   5.783   0.976   6.850
17604SOL    HW157659   5.872   0.931   6.836
17604SOL    HW257660   5.710   0.911   6.831
17605SOL     OW57661   7.111   0.999   5.776
17605SOL    HW157662   7.048   0.923   5.789
17605SOL    HW257663   7.159   1.017   5.862
17606SOL     OW57664   6.773   1.792   7.202
17606SOL    HW157665   6.797   1.852   7.126
17606SOL    HW257666   6.780   1.697   7.172
17607SOL     OW57667   5.903   0.251   7.387
17607SOL    HW157668   5.974   0.322   7.393
17607SOL    HW257669   5.815   0.290   7.415
17608SOL     OW57670   7.052   1.417   6.539
17608SOL    HW157671   6.993   1.423   6.619
17608SOL    HW257672   7.037   1.329   6.493
17609SOL     OW57673   7.253   1.714   6.158
17609SOL    HW157674   7.212   1.691   6.070
17609SOL    HW257675   7.235   1.640   6.223
17610SOL     OW57676   6.184   0.729   5.856
17610SOL    HW157677   6.208   0.798   5.788
17610SOL    HW257678   6.106   0.762   5.910
17611SOL     OW57679   6.867   0.345   6.530
17611SOL    HW157680   6.781   0.295   6.517
17611SOL    HW257681   6.929   0.291   6.586
17612SOL     OW57682   7.162   1.662   5.893
17612SOL    HW157683   7.251   1.708   5.896
17612SOL    HW257684   7.141   1.638   5.798
17613SOL     OW57685   6.393   0.605   7.051
17613SOL    HW157686   6.346   0.602   7.140
17613SOL    HW257687   6.342   0.550   6.985
17614SOL     OW57688   6.980   0.469   7.260
17614SOL    HW157689   6.960   0.512   7.348
17614SOL    HW257690   7.058   0.407   7.269
17615SOL     OW57691   6.559   0.890   7.158
17615SOL    HW157692   6.605   0.806   7.129
17615SOL    HW257693   6.503   0.924   7.083
17616SOL     OW57694   6.577   0.410   6.828
17616SOL    HW157695   6.500   0.444   6.882
17616SOL    HW257696   6.543   0.359   6.749
17617SOL     OW57697   6.627   0.701   6.015
17617SOL    HW157698   6.653   0.697   6.111
17617SOL    HW257699   6.542   0.650   6.001
17618SOL     OW57700   5.662   0.811   6.375
17618SOL    HW157701   5.761   0.799   6.384
17618SOL    HW257702   5.638   0.906   6.396
17619SOL     OW57703   5.716   1.821   7.157
17619SOL    HW157704   5.706   1.806   7.256
17619SOL    HW257705   5.630   1.857   7.121
17620SOL     OW57706   6.451   0.348   5.781
17620SOL    HW157707   6.510   0.411   5.732
17620SOL    HW257708   6.470   0.254   5.752
17621SOL     OW57709   7.305   0.585   7.417
17621SOL    HW157710   7.279   0.674   7.381
17621SOL    HW257711   7.303   0.517   7.344
17622SOL     OW57712   6.948   1.144   6.131
17622SOL    HW157713   7.031   1.115   6.083
17622SOL    HW257714   6.899   1.211   6.075
17623SOL     OW57715   6.136   0.196   6.471
17623SOL    HW157716   6.131   0.191   6.571
17623SOL    HW257717   6.138   0.292   6.442
17624SOL     OW57718   6.594   1.456   6.063
17624SOL    HW157719   6.548   1.528   6.011
17624SOL    HW257720   6.590   1.476   6.161
17625SOL     OW57721   7.381   1.066   6.459
17625SOL    HW157722   7.319   1.051   6.383
17625SOL    HW257723   7.329   1.077   6.544
17626SOL     OW57724   6.813   1.550   7.092
17626SOL    HW157725   6.819   1.473   7.156
17626SOL    HW257726   6.761   1.524   7.012
17627SOL     OW57727   5.907   0.943   5.828
17627SOL    HW157728   5.989   0.982   5.786
17627SOL    HW257729   5.880   0.861   5.779
17628SOL     OW57730   7.044   0.735   6.314
17628SOL    HW157731   7.039   0.670   6.389
17628SOL    HW257732   7.124   0.794   6.327
17629SOL     OW57733   6.047   1.266   7.313
17629SOL    HW157734   5.997   1.267   7.227
17629SOL    HW257735   5.984   1.248   7.389
17630SOL     OW57736   6.697   1.776   5.823
17630SOL    HW157737   6.637   1.714   5.873
17630SOL    HW257738   6.728   1.732   5.738
17631SOL     OW57739   5.788   0.285   7.084
17631SOL    HW157740   5.708   0.345   7.071
17631SOL    HW257741   5.778   0.236   7.170
17632SOL     OW57742   7.218   1.377   5.667
17632SOL    HW157743   7.186   1.471   5.657
17632SOL    HW257744   7.142   1.314   5.655
17633SOL     OW57745   6.050   1.743   5.909
17633SOL    HW157746   6.083   1.782   5.995
17633SOL    HW257747   6.126   1.736   5.844
17634SOL     OW57748   6.986   0.107   6.012
17634SOL    HW157749   6.962   0.070   5.922
17634SOL    HW257750   7.085   0.123   6.016
17635SOL     OW57751   6.526   1.698   6.490
17635SOL    HW157752   6.606   1.641   6.511
17635SOL    HW257753   6.477   1.658   6.413
17636SOL     OW57754   5.968   0.700   6.066
17636SOL    HW157755   6.013   0.610   6.063
17636SOL    HW257756   5.874   0.689   6.099
17637SOL     OW57757   7.133   0.222   7.315
17637SOL    HW157758   7.128   0.259   7.407
17637SOL    HW257759   7.061   0.153   7.303
17638SOL     OW57760   6.200   0.122   5.703
17638SOL    HW157761   6.298   0.100   5.710
17638SOL    HW257762   6.169   0.105   5.610
17639SOL     OW57763   6.367   0.264   7.335
17639SOL    HW157764   6.434   0.203   7.378
17639SOL    HW257765   6.294   0.283   7.400
17640SOL     OW57766   6.474   1.514   6.781
17640SOL    HW157767   6.451   1.489   6.687
17640SOL    HW257768   6.535   1.445   6.820
17641SOL     OW57769   6.937   0.590   7.019
17641SOL    HW157770   6.965   0.547   7.104
17641SOL    HW257771   6.962   0.686   7.020
17642SOL     OW57772   6.508   0.503   6.485
17642SOL    HW157773   6.483   0.494   6.389
17642SOL    HW257774   6.556   0.421   6.516
17643SOL     OW57775   6.125   0.064   6.098
17643SOL    HW157776   6.044   0.065   6.156
17643SOL    HW257777   6.128   0.147   6.043
17644SOL     OW57778   7.020   1.188   5.627
17644SOL    HW157779   7.052   1.112   5.684
17644SOL    HW257780   6.928   1.215   5.657
17645SOL     OW57781   5.883   0.035   5.757
17645SOL    HW157782   5.932   0.119   5.736
17645SOL    HW257783   5.945  -0.030   5.802
17646SOL     OW57784   6.521   0.236   6.066
17646SOL    HW157785   6.473   0.277   5.988
17646SOL    HW257786   6.620   0.234   6.047
17647SOL     OW57787   6.813   1.570   6.379
17647SOL    HW157788   6.834   1.644   6.314
17647SOL    HW257789   6.881   1.570   6.452
17648SOL     OW57790   6.045   1.152   6.327
17648SOL    HW157791   5.974   1.125   6.392
17648SOL    HW257792   6.019   1.124   6.234
17649SOL     OW57793   6.857   1.797   6.177
17649SOL    HW157794   6.901   1.861   6.113
17649SOL    HW257795   6.807   1.849   6.247
17650SOL     OW57796   5.664   0.556   6.972
17650SOL    HW157797   5.756   0.555   6.931
17650SOL    HW257798   5.658   0.630   7.039
17651SOL     OW57799   6.147   0.222   6.733
17651SOL    HW157800   6.185   0.138   6.770
17651SOL    HW257801   6.059   0.241   6.777
17652SOL     OW57802   6.452   0.454   6.228
17652SOL    HW157803   6.420   0.526   6.166
17652SOL    HW257804   6.476   0.373   6.175
17653SOL     OW57805   6.603   0.039   6.339
17653SOL    HW157806   6.531   0.044   6.270
17653SOL    HW257807   6.579  -0.030   6.408
17654SOL     OW57808   7.015   1.173   6.453
17654SOL    HW157809   6.960   1.089   6.446
17654SOL    HW257810   7.041   1.202   6.361
17655SOL     OW57811   7.052   0.590   6.578
17655SOL    HW157812   7.022   0.495   6.585
17655SOL    HW257813   7.125   0.606   6.644
17656SOL     OW57814   7.443   0.833   5.963
17656SOL    HW157815   7.485   0.769   6.027
17656SOL    HW257816   7.405   0.782   5.885
17657SOL     OW57817   6.074   1.385   5.760
17657SOL    HW157818   5.987   1.370   5.807
17657SOL    HW257819   6.057   1.411   5.665
17658SOL     OW57820   7.250   1.280   6.243
17658SOL    HW157821   7.349   1.288   6.257
17658SOL    HW257822   7.205   1.364   6.274
17659SOL     OW57823   6.976   0.575   5.664
17659SOL    HW157824   6.922   0.554   5.745
17659SOL    HW257825   7.067   0.534   5.673
17660SOL     OW57826   6.113   0.256   5.914
17660SOL    HW157827   6.140   0.197   5.839
17660SOL    HW257828   6.113   0.351   5.883
17661SOL     OW57829   7.340   1.223   7.174
17661SOL    HW157830   7.431   1.184   7.161
17661SOL    HW257831   7.348   1.319   7.198
17662SOL     OW57832   6.650   1.347   6.926
17662SOL    HW157833   6.570   1.324   6.981
17662SOL    HW257834   6.733   1.321   6.975
17663SOL     OW57835   7.178   1.629   7.211
17663SOL    HW157836   7.205   1.663   7.121
17663SOL    HW257837   7.257   1.591   7.257
17664SOL     OW57838   7.224   1.099   6.665
17664SOL    HW157839   7.229   1.180   6.724
17664SOL    HW257840   7.138   1.101   6.614
17665SOL     OW57841   6.501   0.089   6.988
17665SOL    HW157842   6.526   0.069   6.893
17665SOL    HW257843   6.573   0.145   7.030
17666SOL     OW57844   6.566   1.116   7.305
17666SOL    HW157845   6.467   1.122   7.315
17666SOL    HW257846   6.589   1.036   7.249
17667SOL     OW57847   6.291   1.050   5.954
17667SOL    HW157848   6.277   1.057   6.053
17667SOL    HW257849   6.375   0.999   5.936
17668SOL     OW57850   5.996   0.813   6.837
17668SOL    HW157851   6.082   0.825   6.887
17668SOL    HW257852   5.954   0.726   6.864
17669SOL     OW57853   6.860   0.386   6.848
17669SOL    HW157854   6.881   0.460   6.912
17669SOL    HW257855   6.771   0.403   6.805
17670SOL     OW57856   5.650   1.564   6.917
17670SOL    HW157857   5.604   1.646   6.883
17670SOL    HW257858   5.748   1.583   6.926
17671SOL     OW57859   5.953   1.100   6.087
17671SOL    HW157860   5.946   1.183   6.031
17671SOL    HW257861   5.957   1.020   6.027
17672SOL     OW57862   6.152   0.537   6.451
17672SOL    HW157863   6.164   0.603   6.377
17672SOL    HW257864   6.198   0.571   6.534
17673SOL     OW57865   6.838   1.348   5.974
17673SOL    HW157866   6.888   1.425   6.014
17673SOL    HW257867   6.743   1.350   6.006
17674SOL     OW57868   6.858   1.445   6.728
17674SOL    HW157869   6.905   1.458   6.815
17674SOL    HW257870   6.792   1.371   6.737
17675SOL     OW57871   7.168   0.639   6.058
17675SOL    HW157872   7.137   0.700   6.131
17675SOL    HW257873   7.218   0.691   5.989
17676SOL     OW57874   5.940   1.510   6.915
17676SOL    HW157875   5.919   1.466   6.828
17676SOL    HW257876   6.037   1.536   6.918
17677SOL     OW57877   5.988   0.751   7.184
17677SOL    HW157878   6.056   0.806   7.137
17677SOL    HW257879   6.028   0.663   7.211
17678SOL     OW57880   7.173   0.779   7.256
17678SOL    HW157881   7.081   0.817   7.251
17678SOL    HW257882   7.233   0.826   7.191
17679SOL     OW57883   6.599   0.105   7.356
17679SOL    HW157884   6.605   0.190   7.304
17679SOL    HW257885   6.631   0.029   7.299
17680SOL     OW57886   6.090   0.050   7.326
17680SOL    HW157887   6.048  -0.007   7.256
17680SOL    HW257888   6.024   0.119   7.358
17681SOL     OW57889   6.159   0.870   6.615
17681SOL    HW157890   6.203   0.959   6.606
17681SOL    HW257891   6.096   0.870   6.692
17682SOL     OW57892   6.946   0.862   6.631
17682SOL    HW157893   6.871   0.862   6.565
17682SOL    HW257894   6.983   0.770   6.640
17683SOL     OW57895   6.795   0.525   5.861
17683SOL    HW157896   6.808   0.441   5.915
17683SOL    HW257897   6.766   0.599   5.921
17684SOL     OW57898   5.893   0.213   6.817
17684SOL    HW157899   5.870   0.250   6.907
17684SOL    HW257900   5.863   0.118   6.811
17685SOL     OW57901   5.623   1.310   6.868
17685SOL    HW157902   5.676   1.261   6.936
17685SOL    HW257903   5.645   1.408   6.873
17686SOL     OW57904   6.318   0.634   6.650
17686SOL    HW157905   6.377   0.608   6.574
17686SOL    HW257906   6.290   0.730   6.639
17687SOL     OW57907   7.314   0.935   7.440
17687SOL    HW157908   7.268   0.928   7.351
17687SOL    HW257909   7.252   0.979   7.506
17688SOL     OW57910   5.893   0.063   6.204
17688SOL    HW157911   5.882   0.157   6.237
17688SOL    HW257912   5.888   0.000   6.281
17689SOL     OW57913   7.208   0.367   5.960
17689SOL    HW157914   7.210   0.291   6.024
17689SOL    HW257915   7.160   0.444   6.000
17690SOL     OW57916   6.609   0.766   6.552
17690SOL    HW157917   6.624   0.787   6.648
17690SOL    HW257918   6.579   0.671   6.543
17691SOL     OW57919   6.566   1.573   7.286
17691SOL    HW157920   6.546   1.617   7.198
17691SOL    HW257921   6.605   1.482   7.270
17692SOL     OW57922   7.445   1.518   7.191
17692SOL    HW157923   7.459   1.545   7.096
17692SOL    HW257924   7.528   1.540   7.244
17693SOL     OW57925   5.936   0.898   7.390
17693SOL    HW157926   6.012   0.942   7.438
17693SOL    HW257927   5.971   0.851   7.308
17694SOL     OW57928   7.126   0.274   5.711
17694SOL    HW157929   7.065   0.199   5.734
17694SOL    HW257930   7.148   0.326   5.794
17695SOL     OW57931   6.889   0.838   5.628
17695SOL    HW157932   6.923   0.745   5.643
17695SOL    HW257933   6.907   0.865   5.533
17696SOL     OW57934   5.905   0.810   6.535
17696SOL    HW157935   5.998   0.846   6.540
17696SOL    HW257936   5.899   0.725   6.587
17697SOL     OW57937   5.925   0.509   6.592
17697SOL    HW157938   5.873   0.426   6.575
17697SOL    HW257939   6.002   0.514   6.528
17698SOL     OW57940   6.724   0.380   7.264
17698SOL    HW157941   6.679   0.443   7.328
17698SOL    HW257942   6.817   0.411   7.247
17699SOL     OW57943   6.746   0.207   7.063
17699SOL    HW157944   6.746   0.271   7.140
17699SOL    HW257945   6.774   0.255   6.980
17700SOL     OW57946   5.594   1.326   5.786
17700SOL    HW157947   5.501   1.347   5.755
17700SOL    HW257948   5.604   1.227   5.799
17701SOL     OW57949   6.588   0.796   6.824
17701SOL    HW157950   6.629   0.764   6.910
17701SOL    HW257951   6.492   0.769   6.821
17702SOL     OW57952   5.626   0.544   6.700
17702SOL    HW157953   5.711   0.511   6.659
17702SOL    HW257954   5.639   0.559   6.798
17703SOL     OW57955   5.775   0.520   7.308
17703SOL    HW157956   5.834   0.480   7.238
17703SOL    HW257957   5.717   0.591   7.267
17704SOL     OW57958   6.955   0.950   7.246
17704SOL    HW157959   6.994   1.039   7.266
17704SOL    HW257960   6.965   0.930   7.149
17705SOL     OW57961   6.401   0.572   5.911
17705SOL    HW157962   6.408   0.483   5.865
17705SOL    HW257963   6.307   0.606   5.903
17706SOL     OW57964   7.243   0.604   6.792
17706SOL    HW157965   7.205   0.535   6.854
17706SOL    HW257966   7.325   0.568   6.748
17707SOL     OW57967   5.838   1.564   7.330
17707SOL    HW157968   5.808   1.621   7.406
17707SOL    HW257969   5.831   1.467   7.356
17708SOL     OW57970   6.257   0.464   6.855
17708SOL    HW157971   6.223   0.375   6.825
17708SOL    HW257972   6.283   0.518   6.775
17709SOL     OW57973   6.516   1.678   7.051
17709SOL    HW157974   6.492   1.660   6.956
17709SOL    HW257975   6.546   1.772   7.061
17710SOL     OW57976   6.059   0.500   5.777
17710SOL    HW157977   6.120   0.580   5.781
17710SOL    HW257978   5.964   0.531   5.784
17711SOL     OW57979   5.745   1.137   7.052
17711SOL    HW157980   5.767   1.076   7.128
17711SOL    HW257981   5.755   1.088   6.966
17712SOL     OW57982   6.933   1.059   6.820
17712SOL    HW157983   6.957   0.996   6.746
17712SOL    HW257984   6.843   1.099   6.802
17713SOL     OW57985   6.888   0.855   5.895
17713SOL    HW157986   6.802   0.824   5.937
17713SOL    HW257987   6.884   0.841   5.796
17714SOL     OW57988   6.838   1.731   6.714
17714SOL    HW157989   6.922   1.736   6.660
17714SOL    HW257990   6.815   1.635   6.732
17715SOL     OW57991   5.669   1.258   6.608
17715SOL    HW157992   5.664   1.257   6.708
17715SOL    HW257993   5.586   1.217   6.570
17716SOL     OW57994   6.274   1.662   7.302
17716SOL    HW157995   6.218   1.743   7.311
17716SOL    HW257996   6.326   1.666   7.216
17717SOL     OW57997   7.312   0.135   6.109
17717SOL    HW157998   7.385   0.118   6.042
17717SOL    HW257999   7.281   0.048   6.147
17718SOL     OW58000   6.974   1.573   6.063
17718SOL    HW158001   7.041   1.585   5.989
17718SOL    HW258002   6.934   1.662   6.086
17719SOL     OW58003   5.716   1.794   7.437
17719SOL    HW158004   5.675   1.720   7.490
17719SOL    HW258005   5.780   1.845   7.495
17720SOL     OW58006   6.866   0.927   6.258
17720SOL    HW158007   6.926   0.846   6.260
17720SOL    HW258008   6.906   0.996   6.198
17721SOL     OW58009   6.416   1.273   7.008
17721SOL    HW158010   6.411   1.306   7.103
17721SOL    HW258011   6.330   1.292   6.962
17722SOL     OW58012   6.258   1.616   5.740
17722SOL    HW158013   6.267   1.626   5.641
17722SOL    HW258014   6.218   1.527   5.761
17723SOL     OW58015   7.427   0.175   6.549
17723SOL    HW158016   7.466   0.090   6.513
17723SOL    HW258017   7.329   0.177   6.530
17724SOL     OW58018   5.849   0.326   6.306
17724SOL    HW158019   5.770   0.377   6.272
17724SOL    HW258020   5.840   0.311   6.404
17725SOL     OW58021   6.780   1.612   5.617
17725SOL    HW158022   6.786   1.519   5.654
17725SOL    HW258023   6.721   1.612   5.537
17726SOL     OW58024   6.408   1.002   6.958
17726SOL    HW158025   6.448   1.001   6.866
17726SOL    HW258026   6.418   1.094   6.998
17727SOL     OW58027   6.502   0.910   5.877
17727SOL    HW158028   6.565   0.948   5.809
17727SOL    HW258029   6.542   0.827   5.916
17728SOL     OW58030   7.090   1.607   5.630
17728SOL    HW158031   6.998   1.644   5.637
17728SOL    HW258032   7.128   1.627   5.540
17729SOL     OW58033   5.958   1.288   7.076
17729SOL    HW158034   5.945   1.381   7.042
17729SOL    HW258035   5.874   1.236   7.063
17730SOL     OW58036   7.200   1.292   6.875
17730SOL    HW158037   7.260   1.295   6.955
17730SOL    HW258038   7.125   1.356   6.888
17731SOL     OW58039   6.600   0.236   6.557
17731SOL    HW158040   6.592   0.200   6.464
17731SOL    HW258041   6.598   0.160   6.622
17732SOL     OW58042   6.176   1.487   6.077
17732SOL    HW158043   6.218   1.429   6.007
17732SOL    HW258044   6.132   1.566   6.033
17733SOL     OW58045   7.295   0.385   6.967
17733SOL    HW158046   7.368   0.454   6.971
17733SOL    HW258047   7.323   0.310   6.908
17734SOL     OW58048   5.841   1.348   5.876
17734SOL    HW158049   5.745   1.349   5.849
17734SOL    HW258050   5.853   1.401   5.960
17735SOL     OW58051   5.691   1.013   7.312
17735SOL    HW158052   5.614   0.980   7.366
17735SOL    HW258053   5.776   0.983   7.354
17736SOL     OW58054   6.258   0.203   7.075
17736SOL    HW158055   6.348   0.187   7.035
17736SOL    HW258056   6.266   0.208   7.174
17737SOL     OW58057   5.661   0.345   5.619
17737SOL    HW158058   5.569   0.317   5.590
17737SOL    HW258059   5.692   0.422   5.563
17738SOL     OW58060   7.026   0.856   6.984
17738SOL    HW158061   6.969   0.908   6.921
17738SOL    HW258062   7.122   0.868   6.960
17739SOL     OW58063   5.658   0.166   5.904
17739SOL    HW158064   5.641   0.249   5.850
17739SOL    HW258065   5.748   0.129   5.882
17740SOL     OW58066   6.769   1.335   5.705
17740SOL    HW158067   6.670   1.324   5.707
17740SOL    HW258068   6.803   1.350   5.798
17741SOL     OW58069   6.199   0.842   7.017
17741SOL    HW158070   6.255   0.923   7.000
17741SOL    HW258071   6.258   0.762   7.020
17742SOL     OW58072   6.302   0.565   7.294
17742SOL    HW158073   6.321   0.630   7.368
17742SOL    HW258074   6.362   0.485   7.303
17743SOL     OW58075   7.036   1.220   7.219
17743SOL    HW158076   7.027   1.210   7.318
17743SOL    HW258077   7.132   1.213   7.193
17744SOL     OW58078   5.976   1.741   7.146
17744SOL    HW158079   5.885   1.782   7.144
17744SOL    HW258080   5.969   1.647   7.178
17745SOL     OW58081   7.260   0.883   6.840
17745SOL    HW158082   7.233   0.794   6.803
17745SOL    HW258083   7.261   0.951   6.767
17746SOL     OW58084   6.811   0.325   6.035
17746SOL    HW158085   6.876   0.251   6.024
17746SOL    HW258086   6.831   0.375   6.119
17747SOL     OW58087   6.180   0.745   6.238
17747SOL    HW158088   6.230   0.830   6.219
17747SOL    HW258089   6.092   0.747   6.190
17748SOL     OW58090   7.363   0.342   7.228
17748SOL    HW158091   7.346   0.373   7.134
17748SOL    HW258092   7.279   0.305   7.266
17749SOL     OW58093   7.316   0.934   7.103
17749SOL    HW158094   7.354   1.025   7.118
17749SOL    HW258095   7.308   0.917   7.004
17750SOL     OW58096   6.445   1.374   5.602
17750SOL    HW158097   6.399   1.389   5.690
17750SOL    HW258098   6.489   1.459   5.572
17751SOL     OW58099   6.247   1.790   6.539
17751SOL    HW158100   6.201   1.878   6.526
17751SOL    HW258101   6.346   1.802   6.532
17752SOL     OW58102   6.445   0.956   6.447
17752SOL    HW158103   6.499   0.887   6.495
17752SOL    HW258104   6.413   1.025   6.513
17753SOL     OW58105   7.447   1.569   6.437
17753SOL    HW158106   7.376   1.557   6.367
17753SOL    HW258107   7.448   1.490   6.497
17754SOL     OW58108   5.807   1.314   7.430
17754SOL    HW158109   5.742   1.241   7.409
17754SOL    HW258110   5.811   1.328   7.528
17755SOL     OW58111   5.665   1.240   6.239
17755SOL    HW158112   5.664   1.193   6.327
17755SOL    HW258113   5.747   1.212   6.188
17756SOL     OW58114   6.258   1.391   7.210
17756SOL    HW158115   6.180   1.341   7.248
17756SOL    HW258116   6.255   1.486   7.241
17757SOL     OW58117   7.410   0.192   6.813
17757SOL    HW158118   7.406   0.102   6.857
17757SOL    HW258119   7.413   0.181   6.714
17758SOL     OW58120   6.014   0.424   6.106
17758SOL    HW158121   6.044   0.352   6.044
17758SOL    HW258122   5.975   0.384   6.189
17759SOL     OW58123   7.291   1.487   6.690
17759SOL    HW158124   7.198   1.462   6.663
17759SOL    HW258125   7.317   1.437   6.772
17760SOL     OW58126   5.903   0.547   6.866
17760SOL    HW158127   5.941   0.488   6.938
17760SOL    HW258128   5.943   0.521   6.778
17761SOL     OW58129   7.010   0.214   6.698
17761SOL    HW158130   7.062   0.149   6.753
17761SOL    HW258131   6.961   0.277   6.759
17762SOL     OW58132   6.587   0.034   6.740
17762SOL    HW158133   6.524  -0.038   6.709
17762SOL    HW258134   6.680  -0.002   6.740
17763SOL     OW58135   6.356   1.330   5.887
17763SOL    HW158136   6.310   1.243   5.904
17763SOL    HW258137   6.447   1.327   5.928
17764SOL     OW58138   6.204   1.567   6.870
17764SOL    HW158139   6.199   1.649   6.927
17764SOL    HW258140   6.293   1.564   6.825
17765SOL     OW58141   6.938   0.052   5.754
17765SOL    HW158142   6.973   0.011   5.670
17765SOL    HW258143   6.848   0.014   5.774
17766SOL     OW58144   6.886   0.453   6.277
17766SOL    HW158145   6.827   0.533   6.281
17766SOL    HW258146   6.901   0.418   6.370
17767SOL     OW58147   7.179   0.221   6.468
17767SOL    HW158148   7.095   0.220   6.522
17767SOL    HW258149   7.181   0.304   6.412
17768SOL     OW58150   5.625   1.077   5.886
17768SOL    HW158151   5.724   1.066   5.877
17768SOL    HW258152   5.585   0.991   5.918
17769SOL     OW58153   6.461   1.646   5.923
17769SOL    HW158154   6.384   1.611   5.869
17769SOL    HW258155   6.429   1.717   5.985
17770SOL     OW58156   5.816   0.628   7.561
17770SOL    HW158157   5.723   0.626   7.598
17770SOL    HW258158   5.817   0.589   7.469
17771SOL     OW58159   5.811   0.275   8.444
17771SOL    HW158160   5.846   0.258   8.536
17771SOL    HW258161   5.723   0.230   8.432
17772SOL     OW58162   5.605   0.368   8.095
17772SOL    HW158163   5.523   0.411   8.134
17772SOL    HW258164   5.577   0.295   8.032
17773SOL     OW58165   6.155   1.275   8.613
17773SOL    HW158166   6.062   1.268   8.576
17773SOL    HW258167   6.166   1.364   8.657
17774SOL     OW58168   7.141   1.511   8.151
17774SOL    HW158169   7.084   1.495   8.232
17774SOL    HW258170   7.082   1.521   8.071
17775SOL     OW58171   6.721   0.703   8.165
17775SOL    HW158172   6.778   0.781   8.140
17775SOL    HW258173   6.661   0.729   8.241
17776SOL     OW58174   7.341   0.607   7.679
17776SOL    HW158175   7.329   0.594   7.580
17776SOL    HW258176   7.311   0.526   7.728
17777SOL     OW58177   6.436   0.798   9.271
17777SOL    HW158178   6.432   0.874   9.336
17777SOL    HW258179   6.458   0.834   9.180
17778SOL     OW58180   6.271   1.012   8.113
17778SOL    HW158181   6.340   0.996   8.183
17778SOL    HW258182   6.198   1.069   8.151
17779SOL     OW58183   6.272   1.161   9.251
17779SOL    HW158184   6.332   1.240   9.265
17779SOL    HW258185   6.186   1.192   9.210
17780SOL     OW58186   5.921   1.435   8.509
17780SOL    HW158187   5.843   1.404   8.456
17780SOL    HW258188   5.979   1.493   8.452
17781SOL     OW58189   6.024   0.392   8.947
17781SOL    HW158190   6.106   0.336   8.956
17781SOL    HW258191   5.943   0.334   8.951
17782SOL     OW58192   7.189   0.447   8.185
17782SOL    HW158193   7.115   0.493   8.135
17782SOL    HW258194   7.240   0.515   8.238
17783SOL     OW58195   5.817   1.713   7.931
17783SOL    HW158196   5.851   1.790   7.985
17783SOL    HW258197   5.861   1.713   7.841
17784SOL     OW58198   6.713   1.341   9.138
17784SOL    HW158199   6.760   1.341   9.226
17784SOL    HW258200   6.665   1.254   9.127
17785SOL     OW58201   5.816   1.434   7.986
17785SOL    HW158202   5.790   1.530   7.986
17785SOL    HW258203   5.745   1.380   8.031
17786SOL     OW58204   5.826   1.091   8.334
17786SOL    HW158205   5.840   1.007   8.386
17786SOL    HW258206   5.771   1.155   8.389
17787SOL     OW58207   6.206   1.786   8.887
17787SOL    HW158208   6.114   1.769   8.922
17787SOL    HW258209   6.234   1.878   8.913
17788SOL     OW58210   6.192   0.964   7.571
17788SOL    HW158211   6.199   1.048   7.517
17788SOL    HW258212   6.238   0.977   7.659
17789SOL     OW58213   7.180   0.114   8.928
17789SOL    HW158214   7.162   0.181   8.856
17789SOL    HW258215   7.177   0.160   9.017
17790SOL     OW58216   5.708   0.643   8.011
17790SOL    HW158217   5.663   0.555   8.028
17790SOL    HW258218   5.707   0.697   8.095
17791SOL     OW58219   7.428   1.767   7.807
17791SOL    HW158220   7.482   1.738   7.887
17791SOL    HW258221   7.458   1.857   7.778
17792SOL     OW58222   5.613   1.596   7.565
17792SOL    HW158223   5.594   1.500   7.586
17792SOL    HW258224   5.580   1.654   7.640
17793SOL     OW58225   7.275   0.922   8.060
17793SOL    HW158226   7.370   0.893   8.068
17793SOL    HW258227   7.267   0.987   7.985
17794SOL     OW58228   7.227   1.108   7.880
17794SOL    HW158229   7.313   1.110   7.828
17794SOL    HW258230   7.241   1.155   7.968
17795SOL     OW58231   5.699   0.737   9.045
17795SOL    HW158232   5.787   0.724   9.090
17795SOL    HW258233   5.686   0.834   9.023
17796SOL     OW58234   6.879   1.228   8.871
17796SOL    HW158235   6.916   1.155   8.813
17796SOL    HW258236   6.931   1.233   8.956
17797SOL     OW58237   6.395   0.004   7.950
17797SOL    HW158238   6.435   0.095   7.941
17797SOL    HW258239   6.295   0.012   7.956
17798SOL     OW58240   5.783   0.976   8.712
17798SOL    HW158241   5.872   0.931   8.698
17798SOL    HW258242   5.710   0.911   8.693
17799SOL     OW58243   7.111   0.999   7.638
17799SOL    HW158244   7.048   0.923   7.651
17799SOL    HW258245   7.159   1.017   7.724
17800SOL     OW58246   6.773   1.792   9.064
17800SOL    HW158247   6.797   1.852   8.988
17800SOL    HW258248   6.780   1.697   9.034
17801SOL     OW58249   5.903   0.251   9.249
17801SOL    HW158250   5.974   0.322   9.255
17801SOL    HW258251   5.815   0.290   9.277
17802SOL     OW58252   7.253   1.714   8.020
17802SOL    HW158253   7.212   1.691   7.932
17802SOL    HW258254   7.235   1.640   8.085
17803SOL     OW58255   6.184   0.729   7.718
17803SOL    HW158256   6.208   0.798   7.650
17803SOL    HW258257   6.106   0.762   7.772
17804SOL     OW58258   7.162   1.662   7.755
17804SOL    HW158259   7.251   1.708   7.758
17804SOL    HW258260   7.141   1.638   7.660
17805SOL     OW58261   6.393   0.605   8.913
17805SOL    HW158262   6.346   0.602   9.002
17805SOL    HW258263   6.342   0.550   8.847
17806SOL     OW58264   6.980   0.469   9.122
17806SOL    HW158265   6.960   0.512   9.210
17806SOL    HW258266   7.058   0.407   9.131
17807SOL     OW58267   6.559   0.890   9.020
17807SOL    HW158268   6.605   0.806   8.991
17807SOL    HW258269   6.503   0.924   8.945
17808SOL     OW58270   6.627   0.701   7.877
17808SOL    HW158271   6.653   0.697   7.973
17808SOL    HW258272   6.542   0.650   7.863
17809SOL     OW58273   5.662   0.811   8.237
17809SOL    HW158274   5.761   0.799   8.246
17809SOL    HW258275   5.638   0.906   8.258
17810SOL     OW58276   5.716   1.821   9.019
17810SOL    HW158277   5.706   1.806   9.118
17810SOL    HW258278   5.630   1.857   8.983
17811SOL     OW58279   6.451   0.348   7.643
17811SOL    HW158280   6.510   0.411   7.594
17811SOL    HW258281   6.470   0.254   7.614
17812SOL     OW58282   7.305   0.585   9.279
17812SOL    HW158283   7.279   0.674   9.243
17812SOL    HW258284   7.303   0.517   9.206
17813SOL     OW58285   6.948   1.144   7.993
17813SOL    HW158286   7.031   1.115   7.945
17813SOL    HW258287   6.899   1.211   7.937
17814SOL     OW58288   6.136   0.196   8.333
17814SOL    HW158289   6.131   0.191   8.433
17814SOL    HW258290   6.138   0.292   8.304
17815SOL     OW58291   6.594   1.456   7.925
17815SOL    HW158292   6.548   1.528   7.873
17815SOL    HW258293   6.590   1.476   8.023
17816SOL     OW58294   5.937   1.801   8.301
17816SOL    HW158295   5.987   1.715   8.307
17816SOL    HW258296   6.002   1.878   8.298
17817SOL     OW58297   7.381   1.066   8.321
17817SOL    HW158298   7.319   1.051   8.245
17817SOL    HW258299   7.329   1.077   8.406
17818SOL     OW58300   6.813   1.550   8.954
17818SOL    HW158301   6.819   1.473   9.018
17818SOL    HW258302   6.761   1.524   8.874
17819SOL     OW58303   5.907   0.943   7.690
17819SOL    HW158304   5.989   0.982   7.648
17819SOL    HW258305   5.880   0.861   7.641
17820SOL     OW58306   7.044   0.735   8.176
17820SOL    HW158307   7.039   0.670   8.251
17820SOL    HW258308   7.124   0.794   8.189
17821SOL     OW58309   6.047   1.266   9.175
17821SOL    HW158310   5.997   1.267   9.089
17821SOL    HW258311   5.984   1.248   9.251
17822SOL     OW58312   6.697   1.776   7.685
17822SOL    HW158313   6.637   1.714   7.735
17822SOL    HW258314   6.728   1.732   7.600
17823SOL     OW58315   5.788   0.285   8.946
17823SOL    HW158316   5.708   0.345   8.933
17823SOL    HW258317   5.778   0.236   9.032
17824SOL     OW58318   7.218   1.377   7.529
17824SOL    HW158319   7.186   1.471   7.519
17824SOL    HW258320   7.142   1.314   7.517
17825SOL     OW58321   6.050   1.743   7.771
17825SOL    HW158322   6.083   1.782   7.857
17825SOL    HW258323   6.126   1.736   7.706
17826SOL     OW58324   6.986   0.107   7.874
17826SOL    HW158325   6.962   0.070   7.784
17826SOL    HW258326   7.085   0.123   7.878
17827SOL     OW58327   5.835   1.785   8.689
17827SOL    HW158328   5.892   1.720   8.739
17827SOL    HW258329   5.819   1.752   8.596
17828SOL     OW58330   5.968   0.700   7.928
17828SOL    HW158331   6.013   0.610   7.925
17828SOL    HW258332   5.874   0.689   7.961
17829SOL     OW58333   7.133   0.222   9.177
17829SOL    HW158334   7.128   0.259   9.269
17829SOL    HW258335   7.061   0.153   9.165
17830SOL     OW58336   6.200   0.122   7.565
17830SOL    HW158337   6.298   0.100   7.572
17830SOL    HW258338   6.169   0.105   7.472
17831SOL     OW58339   6.367   0.264   9.197
17831SOL    HW158340   6.434   0.203   9.240
17831SOL    HW258341   6.294   0.283   9.262
17832SOL     OW58342   6.474   1.514   8.643
17832SOL    HW158343   6.451   1.489   8.549
17832SOL    HW258344   6.535   1.445   8.682
17833SOL     OW58345   6.937   0.590   8.881
17833SOL    HW158346   6.965   0.547   8.966
17833SOL    HW258347   6.962   0.686   8.882
17834SOL     OW58348   6.508   0.503   8.347
17834SOL    HW158349   6.483   0.494   8.251
17834SOL    HW258350   6.556   0.421   8.378
17835SOL     OW58351   6.125   0.064   7.960
17835SOL    HW158352   6.044   0.065   8.018
17835SOL    HW258353   6.128   0.147   7.905
17836SOL     OW58354   7.020   1.188   7.489
17836SOL    HW158355   7.052   1.112   7.546
17836SOL    HW258356   6.928   1.215   7.519
17837SOL     OW58357   5.883   0.035   7.619
17837SOL    HW158358   5.932   0.119   7.598
17837SOL    HW258359   5.945  -0.030   7.664
17838SOL     OW58360   6.521   0.236   7.928
17838SOL    HW158361   6.473   0.277   7.850
17838SOL    HW258362   6.620   0.234   7.909
17839SOL     OW58363   6.662   0.683   8.912
17839SOL    HW158364   6.582   0.622   8.915
17839SOL    HW258365   6.743   0.630   8.888
17840SOL     OW58366   6.813   1.570   8.241
17840SOL    HW158367   6.834   1.644   8.176
17840SOL    HW258368   6.881   1.570   8.314
17841SOL     OW58369   6.045   1.152   8.189
17841SOL    HW158370   5.974   1.125   8.254
17841SOL    HW258371   6.019   1.124   8.096
17842SOL     OW58372   6.857   1.797   8.039
17842SOL    HW158373   6.901   1.861   7.975
17842SOL    HW258374   6.807   1.849   8.109
17843SOL     OW58375   6.618   0.549   7.464
17843SOL    HW158376   6.577   0.631   7.425
17843SOL    HW258377   6.682   0.575   7.537
17844SOL     OW58378   5.664   0.556   8.834
17844SOL    HW158379   5.756   0.555   8.793
17844SOL    HW258380   5.658   0.630   8.901
17845SOL     OW58381   6.147   0.222   8.595
17845SOL    HW158382   6.185   0.138   8.632
17845SOL    HW258383   6.059   0.241   8.639
17846SOL     OW58384   6.452   0.454   8.090
17846SOL    HW158385   6.420   0.526   8.028
17846SOL    HW258386   6.476   0.373   8.037
17847SOL     OW58387   6.603   0.039   8.201
17847SOL    HW158388   6.531   0.044   8.132
17847SOL    HW258389   6.579  -0.030   8.270
17848SOL     OW58390   7.015   1.173   8.315
17848SOL    HW158391   6.960   1.089   8.308
17848SOL    HW258392   7.041   1.202   8.223
17849SOL     OW58393   7.443   0.833   7.825
17849SOL    HW158394   7.485   0.769   7.889
17849SOL    HW258395   7.405   0.782   7.747
17850SOL     OW58396   6.074   1.385   7.622
17850SOL    HW158397   5.987   1.370   7.669
17850SOL    HW258398   6.057   1.411   7.527
17851SOL     OW58399   7.250   1.280   8.105
17851SOL    HW158400   7.349   1.288   8.119
17851SOL    HW258401   7.205   1.364   8.136
17852SOL     OW58402   6.976   0.575   7.526
17852SOL    HW158403   6.922   0.554   7.607
17852SOL    HW258404   7.067   0.534   7.535
17853SOL     OW58405   6.113   0.256   7.776
17853SOL    HW158406   6.140   0.197   7.701
17853SOL    HW258407   6.113   0.351   7.745
17854SOL     OW58408   7.340   1.223   9.036
17854SOL    HW158409   7.431   1.184   9.023
17854SOL    HW258410   7.348   1.319   9.060
17855SOL     OW58411   6.650   1.347   8.788
17855SOL    HW158412   6.570   1.324   8.843
17855SOL    HW258413   6.733   1.321   8.837
17856SOL     OW58414   7.178   1.629   9.073
17856SOL    HW158415   7.205   1.663   8.983
17856SOL    HW258416   7.257   1.591   9.119
17857SOL     OW58417   6.697   1.195   8.548
17857SOL    HW158418   6.657   1.239   8.629
17857SOL    HW258419   6.656   1.232   8.465
17858SOL     OW58420   7.224   1.099   8.527
17858SOL    HW158421   7.229   1.180   8.586
17858SOL    HW258422   7.138   1.101   8.476
17859SOL     OW58423   6.501   0.089   8.850
17859SOL    HW158424   6.526   0.069   8.755
17859SOL    HW258425   6.573   0.145   8.892
17860SOL     OW58426   6.566   1.116   9.167
17860SOL    HW158427   6.467   1.122   9.177
17860SOL    HW258428   6.589   1.036   9.111
17861SOL     OW58429   6.291   1.050   7.816
17861SOL    HW158430   6.277   1.057   7.915
17861SOL    HW258431   6.375   0.999   7.798
17862SOL     OW58432   5.996   0.813   8.699
17862SOL    HW158433   6.082   0.825   8.749
17862SOL    HW258434   5.954   0.726   8.726
17863SOL     OW58435   5.650   1.564   8.779
17863SOL    HW158436   5.604   1.646   8.745
17863SOL    HW258437   5.748   1.583   8.788
17864SOL     OW58438   5.953   1.100   7.949
17864SOL    HW158439   5.946   1.183   7.893
17864SOL    HW258440   5.957   1.020   7.889
17865SOL     OW58441   6.152   0.537   8.313
17865SOL    HW158442   6.164   0.603   8.239
17865SOL    HW258443   6.198   0.571   8.396
17866SOL     OW58444   6.838   1.348   7.836
17866SOL    HW158445   6.888   1.425   7.876
17866SOL    HW258446   6.743   1.350   7.868
17867SOL     OW58447   6.858   1.445   8.590
17867SOL    HW158448   6.905   1.458   8.677
17867SOL    HW258449   6.792   1.371   8.599
17868SOL     OW58450   7.168   0.639   7.920
17868SOL    HW158451   7.137   0.700   7.993
17868SOL    HW258452   7.218   0.691   7.851
17869SOL     OW58453   5.940   1.510   8.777
17869SOL    HW158454   5.919   1.466   8.690
17869SOL    HW258455   6.037   1.536   8.780
17870SOL     OW58456   5.988   0.751   9.046
17870SOL    HW158457   6.056   0.806   8.999
17870SOL    HW258458   6.028   0.663   9.073
17871SOL     OW58459   7.173   0.779   9.118
17871SOL    HW158460   7.081   0.817   9.113
17871SOL    HW258461   7.233   0.826   9.053
17872SOL     OW58462   6.090   0.050   9.188
17872SOL    HW158463   6.048  -0.007   9.118
17872SOL    HW258464   6.024   0.119   9.220
17873SOL     OW58465   6.159   0.870   8.477
17873SOL    HW158466   6.203   0.959   8.468
17873SOL    HW258467   6.096   0.870   8.554
17874SOL     OW58468   6.946   0.862   8.493
17874SOL    HW158469   6.871   0.862   8.427
17874SOL    HW258470   6.983   0.770   8.502
17875SOL     OW58471   6.795   0.525   7.723
17875SOL    HW158472   6.808   0.441   7.777
17875SOL    HW258473   6.766   0.599   7.783
17876SOL     OW58474   5.893   0.213   8.679
17876SOL    HW158475   5.870   0.250   8.769
17876SOL    HW258476   5.863   0.118   8.673
17877SOL     OW58477   5.623   1.310   8.730
17877SOL    HW158478   5.676   1.261   8.798
17877SOL    HW258479   5.645   1.408   8.735
17878SOL     OW58480   6.318   0.634   8.512
17878SOL    HW158481   6.377   0.608   8.436
17878SOL    HW258482   6.290   0.730   8.501
17879SOL     OW58483   7.314   0.935   9.302
17879SOL    HW158484   7.268   0.928   9.213
17879SOL    HW258485   7.252   0.979   9.368
17880SOL     OW58486   5.893   0.063   8.066
17880SOL    HW158487   5.882   0.157   8.099
17880SOL    HW258488   5.888   0.000   8.143
17881SOL     OW58489   7.208   0.367   7.822
17881SOL    HW158490   7.210   0.291   7.886
17881SOL    HW258491   7.160   0.444   7.862
17882SOL     OW58492   6.609   0.766   8.414
17882SOL    HW158493   6.624   0.787   8.510
17882SOL    HW258494   6.579   0.671   8.405
17883SOL     OW58495   6.566   1.573   9.148
17883SOL    HW158496   6.546   1.617   9.060
17883SOL    HW258497   6.605   1.482   9.132
17884SOL     OW58498   7.445   1.518   9.053
17884SOL    HW158499   7.459   1.545   8.958
17884SOL    HW258500   7.528   1.540   9.106
17885SOL     OW58501   5.936   0.898   9.252
17885SOL    HW158502   6.012   0.942   9.300
17885SOL    HW258503   5.971   0.851   9.170
17886SOL     OW58504   7.126   0.274   7.573
17886SOL    HW158505   7.065   0.199   7.596
17886SOL    HW258506   7.148   0.326   7.656
17887SOL     OW58507   6.889   0.838   7.490
17887SOL    HW158508   6.923   0.745   7.505
17887SOL    HW258509   6.907   0.865   7.395
17888SOL     OW58510   6.654   1.333   8.297
17888SOL    HW158511   6.661   1.249   8.242
17888SOL    HW258512   6.716   1.402   8.261
17889SOL     OW58513   5.905   0.810   8.397
17889SOL    HW158514   5.998   0.846   8.402
17889SOL    HW258515   5.899   0.725   8.449
17890SOL     OW58516   5.925   0.509   8.454
17890SOL    HW158517   5.873   0.426   8.437
17890SOL    HW258518   6.002   0.514   8.390
17891SOL     OW58519   6.724   0.380   9.126
17891SOL    HW158520   6.679   0.443   9.190
17891SOL    HW258521   6.817   0.411   9.109
17892SOL     OW58522   5.594   1.326   7.648
17892SOL    HW158523   5.501   1.347   7.617
17892SOL    HW258524   5.604   1.227   7.661
17893SOL     OW58525   5.674   1.801   8.375
17893SOL    HW158526   5.632   1.715   8.348
17893SOL    HW258527   5.768   1.804   8.341
17894SOL     OW58528   6.090   1.568   8.358
17894SOL    HW158529   6.156   1.642   8.367
17894SOL    HW258530   6.134   1.489   8.316
17895SOL     OW58531   6.588   0.796   8.686
17895SOL    HW158532   6.629   0.764   8.772
17895SOL    HW258533   6.492   0.769   8.683
17896SOL     OW58534   5.626   0.544   8.562
17896SOL    HW158535   5.711   0.511   8.521
17896SOL    HW258536   5.639   0.559   8.660
17897SOL     OW58537   5.775   0.520   9.170
17897SOL    HW158538   5.834   0.480   9.100
17897SOL    HW258539   5.717   0.591   9.129
17898SOL     OW58540   6.955   0.950   9.108
17898SOL    HW158541   6.994   1.039   9.128
17898SOL    HW258542   6.965   0.930   9.011
17899SOL     OW58543   5.838   1.564   9.192
17899SOL    HW158544   5.808   1.621   9.268
17899SOL    HW258545   5.831   1.467   9.218
17900SOL     OW58546   6.257   0.464   8.717
17900SOL    HW158547   6.223   0.375   8.687
17900SOL    HW258548   6.283   0.518   8.637
17901SOL     OW58549   6.516   1.678   8.913
17901SOL    HW158550   6.492   1.660   8.818
17901SOL    HW258551   6.546   1.772   8.923
17902SOL     OW58552   6.059   0.500   7.639
17902SOL    HW158553   6.120   0.580   7.643
17902SOL    HW258554   5.964   0.531   7.646
17903SOL     OW58555   5.745   1.137   8.914
17903SOL    HW158556   5.767   1.076   8.990
17903SOL    HW258557   5.755   1.088   8.828
17904SOL     OW58558   6.933   1.059   8.682
17904SOL    HW158559   6.957   0.996   8.608
17904SOL    HW258560   6.843   1.099   8.664
17905SOL     OW58561   6.888   0.855   7.757
17905SOL    HW158562   6.802   0.824   7.799
17905SOL    HW258563   6.884   0.841   7.658
17906SOL     OW58564   6.838   1.731   8.576
17906SOL    HW158565   6.922   1.736   8.522
17906SOL    HW258566   6.815   1.635   8.594
17907SOL     OW58567   5.669   1.258   8.470
17907SOL    HW158568   5.664   1.257   8.570
17907SOL    HW258569   5.586   1.217   8.432
17908SOL     OW58570   6.274   1.662   9.164
17908SOL    HW158571   6.218   1.743   9.173
17908SOL    HW258572   6.326   1.666   9.078
17909SOL     OW58573   6.974   1.573   7.925
17909SOL    HW158574   7.041   1.585   7.851
17909SOL    HW258575   6.934   1.662   7.948
17910SOL     OW58576   5.716   1.794   9.299
17910SOL    HW158577   5.675   1.720   9.352
17910SOL    HW258578   5.780   1.845   9.357
17911SOL     OW58579   6.866   0.927   8.120
17911SOL    HW158580   6.926   0.846   8.122
17911SOL    HW258581   6.906   0.996   8.060
17912SOL     OW58582   6.416   1.273   8.870
17912SOL    HW158583   6.411   1.306   8.965
17912SOL    HW258584   6.330   1.292   8.824
17913SOL     OW58585   6.258   1.616   7.602
17913SOL    HW158586   6.267   1.626   7.503
17913SOL    HW258587   6.218   1.527   7.623
17914SOL     OW58588   7.427   0.175   8.411
17914SOL    HW158589   7.466   0.090   8.375
17914SOL    HW258590   7.329   0.177   8.392
17915SOL     OW58591   5.849   0.326   8.168
17915SOL    HW158592   5.770   0.377   8.134
17915SOL    HW258593   5.840   0.311   8.266
17916SOL     OW58594   6.780   1.612   7.479
17916SOL    HW158595   6.786   1.519   7.516
17916SOL    HW258596   6.721   1.612   7.399
17917SOL     OW58597   6.408   1.002   8.820
17917SOL    HW158598   6.448   1.001   8.728
17917SOL    HW258599   6.418   1.094   8.860
17918SOL     OW58600   6.502   0.910   7.739
17918SOL    HW158601   6.565   0.948   7.671
17918SOL    HW258602   6.542   0.827   7.778
17919SOL     OW58603   7.090   1.607   7.492
17919SOL    HW158604   6.998   1.644   7.499
17919SOL    HW258605   7.128   1.627   7.402
17920SOL     OW58606   5.958   1.288   8.938
17920SOL    HW158607   5.945   1.381   8.904
17920SOL    HW258608   5.874   1.236   8.925
17921SOL     OW58609   6.625   1.098   8.144
17921SOL    HW158610   6.555   1.051   8.198
17921SOL    HW258611   6.684   1.030   8.101
17922SOL     OW58612   5.841   1.348   7.738
17922SOL    HW158613   5.745   1.349   7.711
17922SOL    HW258614   5.853   1.401   7.822
17923SOL     OW58615   5.691   1.013   9.174
17923SOL    HW158616   5.614   0.980   9.228
17923SOL    HW258617   5.776   0.983   9.216
17924SOL     OW58618   6.258   0.203   8.937
17924SOL    HW158619   6.348   0.187   8.897
17924SOL    HW258620   6.266   0.208   9.036
17925SOL     OW58621   5.661   0.345   7.481
17925SOL    HW158622   5.569   0.317   7.452
17925SOL    HW258623   5.692   0.422   7.425
17926SOL     OW58624   7.026   0.856   8.846
17926SOL    HW158625   6.969   0.908   8.783
17926SOL    HW258626   7.122   0.868   8.822
17927SOL     OW58627   5.658   0.166   7.766
17927SOL    HW158628   5.641   0.249   7.712
17927SOL    HW258629   5.748   0.129   7.744
17928SOL     OW58630   6.769   1.335   7.567
17928SOL    HW158631   6.670   1.324   7.569
17928SOL    HW258632   6.803   1.350   7.660
17929SOL     OW58633   6.199   0.842   8.879
17929SOL    HW158634   6.255   0.923   8.862
17929SOL    HW258635   6.258   0.762   8.882
17930SOL     OW58636   6.302   0.565   9.156
17930SOL    HW158637   6.321   0.630   9.230
17930SOL    HW258638   6.362   0.485   9.165
17931SOL     OW58639   7.036   1.220   9.081
17931SOL    HW158640   7.027   1.210   9.180
17931SOL    HW258641   7.132   1.213   9.055
17932SOL     OW58642   6.811   0.325   7.897
17932SOL    HW158643   6.876   0.251   7.886
17932SOL    HW258644   6.831   0.375   7.981
17933SOL     OW58645   6.180   0.745   8.100
17933SOL    HW158646   6.230   0.830   8.081
17933SOL    HW258647   6.092   0.747   8.052
17934SOL     OW58648   7.363   0.342   9.090
17934SOL    HW158649   7.346   0.373   8.996
17934SOL    HW258650   7.279   0.305   9.128
17935SOL     OW58651   7.316   0.934   8.965
17935SOL    HW158652   7.354   1.025   8.980
17935SOL    HW258653   7.308   0.917   8.866
17936SOL     OW58654   6.445   1.374   7.464
17936SOL    HW158655   6.399   1.389   7.552
17936SOL    HW258656   6.489   1.459   7.434
17937SOL     OW58657   6.247   1.790   8.401
17937SOL    HW158658   6.201   1.878   8.388
17937SOL    HW258659   6.346   1.802   8.394
17938SOL     OW58660   6.445   0.956   8.309
17938SOL    HW158661   6.499   0.887   8.357
17938SOL    HW258662   6.413   1.025   8.375
17939SOL     OW58663   6.669   0.984   7.535
17939SOL    HW158664   6.646   1.037   7.453
17939SOL    HW258665   6.750   0.928   7.516
17940SOL     OW58666   7.447   1.569   8.299
17940SOL    HW158667   7.376   1.557   8.229
17940SOL    HW258668   7.448   1.490   8.359
17941SOL     OW58669   5.807   1.314   9.292
17941SOL    HW158670   5.742   1.241   9.271
17941SOL    HW258671   5.811   1.328   9.390
17942SOL     OW58672   5.665   1.240   8.101
17942SOL    HW158673   5.664   1.193   8.189
17942SOL    HW258674   5.747   1.212   8.050
17943SOL     OW58675   6.258   1.391   9.072
17943SOL    HW158676   6.180   1.341   9.110
17943SOL    HW258677   6.255   1.486   9.103
17944SOL     OW58678   7.410   0.192   8.675
17944SOL    HW158679   7.406   0.102   8.719
17944SOL    HW258680   7.413   0.181   8.576
17945SOL     OW58681   6.014   0.424   7.968
17945SOL    HW158682   6.044   0.352   7.906
17945SOL    HW258683   5.975   0.384   8.051
17946SOL     OW58684   5.903   0.547   8.728
17946SOL    HW158685   5.941   0.488   8.800
17946SOL    HW258686   5.943   0.521   8.640
17947SOL     OW58687   6.356   1.330   7.749
17947SOL    HW158688   6.310   1.243   7.766
17947SOL    HW258689   6.447   1.327   7.790
17948SOL     OW58690   6.204   1.567   8.732
17948SOL    HW158691   6.199   1.649   8.789
17948SOL    HW258692   6.293   1.564   8.687
17949SOL     OW58693   6.938   0.052   7.616
17949SOL    HW158694   6.973   0.011   7.532
17949SOL    HW258695   6.848   0.014   7.636
17950SOL     OW58696   6.886   0.453   8.139
17950SOL    HW158697   6.827   0.533   8.143
17950SOL    HW258698   6.901   0.418   8.232
17951SOL     OW58699   5.625   1.077   7.748
17951SOL    HW158700   5.724   1.066   7.739
17951SOL    HW258701   5.585   0.991   7.780
17952SOL     OW58702   6.461   1.646   7.785
17952SOL    HW158703   6.384   1.611   7.731
17952SOL    HW258704   6.429   1.717   7.847
17953SOL     OW58705   5.816   0.628   9.423
17953SOL    HW158706   5.723   0.626   9.460
17953SOL    HW258707   5.817   0.589   9.331
17954SOL     OW58708   7.341   0.607   9.541
17954SOL    HW158709   7.329   0.594   9.442
17954SOL    HW258710   7.311   0.526   9.590
17955SOL     OW58711   5.817   1.713   9.793
17955SOL    HW158712   5.851   1.790   9.847
17955SOL    HW258713   5.861   1.713   9.703
17956SOL     OW58714   5.816   1.434   9.848
17956SOL    HW158715   5.790   1.530   9.848
17956SOL    HW258716   5.745   1.380   9.893
17957SOL     OW58717   5.708   0.643   9.873
17957SOL    HW158718   5.663   0.555   9.890
17957SOL    HW258719   5.707   0.697   9.957
17958SOL     OW58720   7.428   1.767   9.669
17958SOL    HW158721   7.482   1.738   9.749
17958SOL    HW258722   7.458   1.857   9.640
17959SOL     OW58723   5.613   1.596   9.427
17959SOL    HW158724   5.594   1.500   9.448
17959SOL    HW258725   5.580   1.654   9.502
17960SOL     OW58726   7.275   0.922   9.922
17960SOL    HW158727   7.370   0.893   9.930
17960SOL    HW258728   7.267   0.987   9.847
17961SOL     OW58729   7.227   1.108   9.742
17961SOL    HW158730   7.313   1.110   9.690
17961SOL    HW258731   7.241   1.155   9.830
17962SOL     OW58732   6.395   0.004   9.812
17962SOL    HW158733   6.435   0.095   9.803
17962SOL    HW258734   6.295   0.012   9.818
17963SOL     OW58735   7.111   0.999   9.500
17963SOL    HW158736   7.048   0.923   9.513
17963SOL    HW258737   7.159   1.017   9.586
17964SOL     OW58738   6.184   0.729   9.580
17964SOL    HW158739   6.208   0.798   9.512
17964SOL    HW258740   6.106   0.762   9.634
17965SOL     OW58741   7.162   1.662   9.617
17965SOL    HW158742   7.251   1.708   9.620
17965SOL    HW258743   7.141   1.638   9.522
17966SOL     OW58744   6.627   0.701   9.739
17966SOL    HW158745   6.653   0.697   9.835
17966SOL    HW258746   6.542   0.650   9.725
17967SOL     OW58747   5.662   0.811  10.099
17967SOL    HW158748   5.761   0.799  10.108
17967SOL    HW258749   5.638   0.906  10.120
17968SOL     OW58750   6.451   0.348   9.505
17968SOL    HW158751   6.510   0.411   9.456
17968SOL    HW258752   6.470   0.254   9.476
17969SOL     OW58753   5.937   1.801  10.163
17969SOL    HW158754   5.987   1.715  10.169
17969SOL    HW258755   6.002   1.878  10.160
17970SOL     OW58756   6.697   1.776   9.547
17970SOL    HW158757   6.637   1.714   9.597
17970SOL    HW258758   6.728   1.732   9.462
17971SOL     OW58759   7.218   1.377   9.391
17971SOL    HW158760   7.186   1.471   9.381
17971SOL    HW258761   7.142   1.314   9.379
17972SOL     OW58762   6.050   1.743   9.633
17972SOL    HW158763   6.083   1.782   9.719
17972SOL    HW258764   6.126   1.736   9.568
17973SOL     OW58765   6.986   0.107   9.736
17973SOL    HW158766   6.962   0.070   9.646
17973SOL    HW258767   7.085   0.123   9.740
17974SOL     OW58768   5.968   0.700   9.790
17974SOL    HW158769   6.013   0.610   9.787
17974SOL    HW258770   5.874   0.689   9.823
17975SOL     OW58771   6.200   0.122   9.427
17975SOL    HW158772   6.298   0.100   9.434
17975SOL    HW258773   6.169   0.105   9.334
17976SOL     OW58774   6.125   0.064   9.822
17976SOL    HW158775   6.044   0.065   9.880
17976SOL    HW258776   6.128   0.147   9.767
17977SOL     OW58777   5.883   0.035   9.481
17977SOL    HW158778   5.932   0.119   9.460
17977SOL    HW258779   5.945  -0.030   9.526
17978SOL     OW58780   6.521   0.236   9.790
17978SOL    HW158781   6.473   0.277   9.712
17978SOL    HW258782   6.620   0.234   9.771
17979SOL     OW58783   6.857   1.797   9.901
17979SOL    HW158784   6.901   1.861   9.837
17979SOL    HW258785   6.807   1.849   9.971
17980SOL     OW58786   6.618   0.549   9.326
17980SOL    HW158787   6.577   0.631   9.287
17980SOL    HW258788   6.682   0.575   9.399
17981SOL     OW58789   6.452   0.454   9.952
17981SOL    HW158790   6.420   0.526   9.890
17981SOL    HW258791   6.476   0.373   9.899
17982SOL     OW58792   7.443   0.833   9.687
17982SOL    HW158793   7.485   0.769   9.751
17982SOL    HW258794   7.405   0.782   9.609
17983SOL     OW58795   6.074   1.385   9.484
17983SOL    HW158796   5.987   1.370   9.531
17983SOL    HW258797   6.057   1.411   9.389
17984SOL     OW58798   6.113   0.256   9.638
17984SOL    HW158799   6.140   0.197   9.563
17984SOL    HW258800   6.113   0.351   9.607
17985SOL     OW58801   7.168   0.639   9.782
17985SOL    HW158802   7.137   0.700   9.855
17985SOL    HW258803   7.218   0.691   9.713
17986SOL     OW58804   6.795   0.525   9.585
17986SOL    HW158805   6.808   0.441   9.639
17986SOL    HW258806   6.766   0.599   9.645
17987SOL     OW58807   5.893   0.063   9.928
17987SOL    HW158808   5.882   0.157   9.961
17987SOL    HW258809   5.888   0.000  10.005
17988SOL     OW58810   7.208   0.367   9.684
17988SOL    HW158811   7.210   0.291   9.748
17988SOL    HW258812   7.160   0.444   9.724
17989SOL     OW58813   7.126   0.274   9.435
17989SOL    HW158814   7.065   0.199   9.458
17989SOL    HW258815   7.148   0.326   9.518
17990SOL     OW58816   6.889   0.838   9.352
17990SOL    HW158817   6.923   0.745   9.367
17990SOL    HW258818   6.907   0.865   9.257
17991SOL     OW58819   6.401   0.572   9.635
17991SOL    HW158820   6.408   0.483   9.589
17991SOL    HW258821   6.307   0.606   9.627
17992SOL     OW58822   6.059   0.500   9.501
17992SOL    HW158823   6.120   0.580   9.505
17992SOL    HW258824   5.964   0.531   9.508
17993SOL     OW58825   6.888   0.855   9.619
17993SOL    HW158826   6.802   0.824   9.661
17993SOL    HW258827   6.884   0.841   9.520
17994SOL     OW58828   7.312   0.135   9.833
17994SOL    HW158829   7.385   0.118   9.766
17994SOL    HW258830   7.281   0.048   9.871
17995SOL     OW58831   6.258   1.616   9.464
17995SOL    HW158832   6.267   1.626   9.365
17995SOL    HW258833   6.218   1.527   9.485
17996SOL     OW58834   7.427   0.175  10.273
17996SOL    HW158835   7.466   0.090  10.237
17996SOL    HW258836   7.329   0.177  10.254
17997SOL     OW58837   6.780   1.612   9.341
17997SOL    HW158838   6.786   1.519   9.378
17997SOL    HW258839   6.721   1.612   9.261
17998SOL     OW58840   6.502   0.910   9.601
17998SOL    HW158841   6.565   0.948   9.533
17998SOL    HW258842   6.542   0.827   9.640
17999SOL     OW58843   7.090   1.607   9.354
17999SOL    HW158844   6.998   1.644   9.361
17999SOL    HW258845   7.128   1.627   9.264
18000SOL     OW58846   5.841   1.348   9.600
18000SOL    HW158847   5.745   1.349   9.573
18000SOL    HW258848   5.853   1.401   9.684
18001SOL     OW58849   5.661   0.345   9.343
18001SOL    HW158850   5.569   0.317   9.314
18001SOL    HW258851   5.692   0.422   9.287
18002SOL     OW58852   5.658   0.166   9.628
18002SOL    HW158853   5.641   0.249   9.574
18002SOL    HW258854   5.748   0.129   9.606
18003SOL     OW58855   6.811   0.325   9.759
18003SOL    HW158856   6.876   0.251   9.748
18003SOL    HW258857   6.831   0.375   9.843
18004SOL     OW58858   6.180   0.745   9.962
18004SOL    HW158859   6.230   0.830   9.943
18004SOL    HW258860   6.092   0.747   9.914
18005SOL     OW58861   6.445   1.374   9.326
18005SOL    HW158862   6.399   1.389   9.414
18005SOL    HW258863   6.489   1.459   9.296
18006SOL     OW58864   6.669   0.984   9.397
18006SOL    HW158865   6.646   1.037   9.315
18006SOL    HW258866   6.750   0.928   9.378
18007SOL     OW58867   5.665   1.240   9.963
18007SOL    HW158868   5.664   1.193  10.051
18007SOL    HW258869   5.747   1.212   9.912
18008SOL     OW58870   6.014   0.424   9.830
18008SOL    HW158871   6.044   0.352   9.768
18008SOL    HW258872   5.975   0.384   9.913
18009SOL     OW58873   6.356   1.330   9.611
18009SOL    HW158874   6.310   1.243   9.628
18009SOL    HW258875   6.447   1.327   9.652
18010SOL     OW58876   6.938   0.052   9.478
18010SOL    HW158877   6.973   0.011   9.394
18010SOL    HW258878   6.848   0.014   9.498
18011SOL     OW58879   5.625   1.077   9.610
18011SOL    HW158880   5.724   1.066   9.601
18011SOL    HW258881   5.585   0.991   9.642
18012SOL     OW58882   6.461   1.646   9.647
18012SOL    HW158883   6.384   1.611   9.593
18012SOL    HW258884   6.429   1.717   9.709
18013SOL     OW58885   5.816   2.490   0.113
18013SOL    HW158886   5.723   2.488   0.150
18013SOL    HW258887   5.817   2.451   0.021
18014SOL     OW58888   5.811   2.137   0.996
18014SOL    HW158889   5.846   2.120   1.088
18014SOL    HW258890   5.723   2.092   0.984
18015SOL     OW58891   5.605   2.230   0.647
18015SOL    HW158892   5.523   2.273   0.686
18015SOL    HW258893   5.577   2.157   0.584
18016SOL     OW58894   6.155   3.137   1.165
18016SOL    HW158895   6.062   3.130   1.128
18016SOL    HW258896   6.166   3.226   1.209
18017SOL     OW58897   7.141   3.373   0.703
18017SOL    HW158898   7.084   3.357   0.784
18017SOL    HW258899   7.082   3.383   0.623
18018SOL     OW58900   6.721   2.565   0.717
18018SOL    HW158901   6.778   2.643   0.692
18018SOL    HW258902   6.661   2.591   0.793
18019SOL     OW58903   7.341   2.469   0.231
18019SOL    HW158904   7.329   2.456   0.132
18019SOL    HW258905   7.311   2.388   0.280
18020SOL     OW58906   6.354   3.006   1.023
18020SOL    HW158907   6.276   3.023   1.083
18020SOL    HW258908   6.388   3.093   0.987
18021SOL     OW58909   6.436   2.660   1.823
18021SOL    HW158910   6.432   2.736   1.888
18021SOL    HW258911   6.458   2.696   1.732
18022SOL     OW58912   6.271   2.874   0.665
18022SOL    HW158913   6.340   2.858   0.735
18022SOL    HW258914   6.198   2.931   0.703
18023SOL     OW58915   6.272   3.023   1.803
18023SOL    HW158916   6.332   3.102   1.817
18023SOL    HW258917   6.186   3.054   1.762
18024SOL     OW58918   5.921   3.297   1.061
18024SOL    HW158919   5.843   3.266   1.008
18024SOL    HW258920   5.979   3.355   1.004
18025SOL     OW58921   7.046   3.367   1.339
18025SOL    HW158922   7.070   3.461   1.365
18025SOL    HW258923   7.030   3.313   1.421
18026SOL     OW58924   6.024   2.254   1.499
18026SOL    HW158925   6.106   2.198   1.508
18026SOL    HW258926   5.943   2.196   1.503
18027SOL     OW58927   7.189   2.309   0.737
18027SOL    HW158928   7.115   2.355   0.687
18027SOL    HW258929   7.240   2.377   0.790
18028SOL     OW58930   6.713   3.203   1.690
18028SOL    HW158931   6.760   3.203   1.778
18028SOL    HW258932   6.665   3.116   1.679
18029SOL     OW58933   5.826   2.953   0.886
18029SOL    HW158934   5.840   2.869   0.938
18029SOL    HW258935   5.771   3.017   0.941
18030SOL     OW58936   6.206   3.648   1.439
18030SOL    HW158937   6.114   3.631   1.474
18030SOL    HW258938   6.234   3.740   1.465
18031SOL     OW58939   6.192   2.826   0.123
18031SOL    HW158940   6.199   2.910   0.069
18031SOL    HW258941   6.238   2.839   0.211
18032SOL     OW58942   7.180   1.976   1.480
18032SOL    HW158943   7.162   2.043   1.408
18032SOL    HW258944   7.177   2.022   1.569
18033SOL     OW58945   5.708   2.505   0.563
18033SOL    HW158946   5.663   2.417   0.580
18033SOL    HW258947   5.707   2.559   0.647
18034SOL     OW58948   7.428   3.629   0.359
18034SOL    HW158949   7.482   3.600   0.439
18034SOL    HW258950   7.458   3.719   0.330
18035SOL     OW58951   7.275   2.784   0.612
18035SOL    HW158952   7.370   2.755   0.620
18035SOL    HW258953   7.267   2.849   0.537
18036SOL     OW58954   7.227   2.970   0.432
18036SOL    HW158955   7.313   2.972   0.380
18036SOL    HW258956   7.241   3.017   0.520
18037SOL     OW58957   5.699   2.599   1.597
18037SOL    HW158958   5.787   2.586   1.642
18037SOL    HW258959   5.686   2.696   1.575
18038SOL     OW58960   6.199   3.227   0.726
18038SOL    HW158961   6.150   3.140   0.735
18038SOL    HW258962   6.176   3.270   0.639
18039SOL     OW58963   6.879   3.090   1.423
18039SOL    HW158964   6.916   3.017   1.365
18039SOL    HW258965   6.931   3.095   1.508
18040SOL     OW58966   6.395   1.866   0.502
18040SOL    HW158967   6.435   1.957   0.493
18040SOL    HW258968   6.295   1.874   0.508
18041SOL     OW58969   5.783   2.838   1.264
18041SOL    HW158970   5.872   2.793   1.250
18041SOL    HW258971   5.710   2.773   1.245
18042SOL     OW58972   7.111   2.861   0.190
18042SOL    HW158973   7.048   2.785   0.203
18042SOL    HW258974   7.159   2.879   0.276
18043SOL     OW58975   6.773   3.654   1.616
18043SOL    HW158976   6.797   3.714   1.540
18043SOL    HW258977   6.780   3.559   1.586
18044SOL     OW58978   5.903   2.113   1.801
18044SOL    HW158979   5.974   2.184   1.807
18044SOL    HW258980   5.815   2.152   1.829
18045SOL     OW58981   7.052   3.279   0.953
18045SOL    HW158982   6.993   3.285   1.033
18045SOL    HW258983   7.037   3.191   0.907
18046SOL     OW58984   7.253   3.576   0.572
18046SOL    HW158985   7.212   3.553   0.484
18046SOL    HW258986   7.235   3.502   0.637
18047SOL     OW58987   6.184   2.591   0.270
18047SOL    HW158988   6.208   2.660   0.202
18047SOL    HW258989   6.106   2.624   0.324
18048SOL     OW58990   6.867   2.207   0.944
18048SOL    HW158991   6.781   2.157   0.931
18048SOL    HW258992   6.929   2.153   1.000
18049SOL     OW58993   7.162   3.524   0.307
18049SOL    HW158994   7.251   3.570   0.310
18049SOL    HW258995   7.141   3.500   0.212
18050SOL     OW58996   6.393   2.467   1.465
18050SOL    HW158997   6.346   2.464   1.554
18050SOL    HW258998   6.342   2.412   1.399
18051SOL     OW58999   6.980   2.331   1.674
18051SOL    HW159000   6.960   2.374   1.762
18051SOL    HW259001   7.058   2.269   1.683
18052SOL     OW59002   6.559   2.752   1.572
18052SOL    HW159003   6.605   2.668   1.543
18052SOL    HW259004   6.503   2.786   1.497
18053SOL     OW59005   6.577   2.272   1.242
18053SOL    HW159006   6.500   2.306   1.296
18053SOL    HW259007   6.543   2.221   1.163
18054SOL     OW59008   6.627   2.563   0.429
18054SOL    HW159009   6.653   2.559   0.525
18054SOL    HW259010   6.542   2.512   0.415
18055SOL     OW59011   5.662   2.673   0.789
18055SOL    HW159012   5.761   2.661   0.798
18055SOL    HW259013   5.638   2.768   0.810
18056SOL     OW59014   5.716   3.683   1.571
18056SOL    HW159015   5.706   3.668   1.670
18056SOL    HW259016   5.630   3.719   1.535
18057SOL     OW59017   6.451   2.210   0.195
18057SOL    HW159018   6.510   2.273   0.146
18057SOL    HW259019   6.470   2.116   0.166
18058SOL     OW59020   7.305   2.447   1.831
18058SOL    HW159021   7.279   2.536   1.795
18058SOL    HW259022   7.303   2.379   1.758
18059SOL     OW59023   6.948   3.006   0.545
18059SOL    HW159024   7.031   2.977   0.497
18059SOL    HW259025   6.899   3.073   0.489
18060SOL     OW59026   6.136   2.058   0.885
18060SOL    HW159027   6.131   2.053   0.985
18060SOL    HW259028   6.138   2.154   0.856
18061SOL     OW59029   5.937   3.663   0.853
18061SOL    HW159030   5.987   3.577   0.859
18061SOL    HW259031   6.002   3.740   0.850
18062SOL     OW59032   7.381   2.928   0.873
18062SOL    HW159033   7.319   2.913   0.797
18062SOL    HW259034   7.329   2.939   0.958
18063SOL     OW59035   6.813   3.412   1.506
18063SOL    HW159036   6.819   3.335   1.570
18063SOL    HW259037   6.761   3.386   1.426
18064SOL     OW59038   5.907   2.805   0.242
18064SOL    HW159039   5.989   2.844   0.200
18064SOL    HW259040   5.880   2.723   0.193
18065SOL     OW59041   7.044   2.597   0.728
18065SOL    HW159042   7.039   2.532   0.803
18065SOL    HW259043   7.124   2.656   0.741
18066SOL     OW59044   6.697   3.638   0.237
18066SOL    HW159045   6.637   3.576   0.287
18066SOL    HW259046   6.728   3.594   0.152
18067SOL     OW59047   5.788   2.147   1.498
18067SOL    HW159048   5.708   2.207   1.485
18067SOL    HW259049   5.778   2.098   1.584
18068SOL     OW59050   7.218   3.239   0.081
18068SOL    HW159051   7.186   3.333   0.071
18068SOL    HW259052   7.142   3.176   0.069
18069SOL     OW59053   6.050   3.605   0.323
18069SOL    HW159054   6.083   3.644   0.409
18069SOL    HW259055   6.126   3.598   0.258
18070SOL     OW59056   5.835   3.647   1.241
18070SOL    HW159057   5.892   3.582   1.291
18070SOL    HW259058   5.819   3.614   1.148
18071SOL     OW59059   6.526   3.560   0.904
18071SOL    HW159060   6.606   3.503   0.925
18071SOL    HW259061   6.477   3.520   0.827
18072SOL     OW59062   5.968   2.562   0.480
18072SOL    HW159063   6.013   2.472   0.477
18072SOL    HW259064   5.874   2.551   0.513
18073SOL     OW59065   7.133   2.084   1.729
18073SOL    HW159066   7.128   2.121   1.821
18073SOL    HW259067   7.061   2.015   1.717
18074SOL     OW59068   6.200   1.984   0.117
18074SOL    HW159069   6.298   1.962   0.124
18074SOL    HW259070   6.169   1.967   0.024
18075SOL     OW59071   6.367   2.126   1.749
18075SOL    HW159072   6.434   2.065   1.792
18075SOL    HW259073   6.294   2.145   1.814
18076SOL     OW59074   6.474   3.376   1.195
18076SOL    HW159075   6.451   3.351   1.101
18076SOL    HW259076   6.535   3.307   1.234
18077SOL     OW59077   6.937   2.452   1.433
18077SOL    HW159078   6.965   2.409   1.518
18077SOL    HW259079   6.962   2.548   1.434
18078SOL     OW59080   6.389   3.264   0.924
18078SOL    HW159081   6.479   3.278   0.882
18078SOL    HW259082   6.318   3.266   0.853
18079SOL     OW59083   6.508   2.365   0.899
18079SOL    HW159084   6.483   2.356   0.803
18079SOL    HW259085   6.556   2.283   0.930
18080SOL     OW59086   6.125   1.926   0.512
18080SOL    HW159087   6.044   1.927   0.570
18080SOL    HW259088   6.128   2.009   0.457
18081SOL     OW59089   6.521   2.098   0.480
18081SOL    HW159090   6.473   2.139   0.402
18081SOL    HW259091   6.620   2.096   0.461
18082SOL     OW59092   6.662   2.545   1.464
18082SOL    HW159093   6.582   2.484   1.467
18082SOL    HW259094   6.743   2.492   1.440
18083SOL     OW59095   6.045   3.014   0.741
18083SOL    HW159096   5.974   2.987   0.806
18083SOL    HW259097   6.019   2.986   0.648
18084SOL     OW59098   6.618   2.411   0.016
18084SOL    HW159099   6.577   2.493  -0.023
18084SOL    HW259100   6.682   2.437   0.089
18085SOL     OW59101   5.664   2.418   1.386
18085SOL    HW159102   5.756   2.417   1.345
18085SOL    HW259103   5.658   2.492   1.453
18086SOL     OW59104   6.147   2.084   1.147
18086SOL    HW159105   6.185   2.000   1.184
18086SOL    HW259106   6.059   2.103   1.191
18087SOL     OW59107   6.452   2.316   0.642
18087SOL    HW159108   6.420   2.388   0.580
18087SOL    HW259109   6.476   2.235   0.589
18088SOL     OW59110   6.603   1.901   0.753
18088SOL    HW159111   6.531   1.906   0.684
18088SOL    HW259112   6.579   1.832   0.822
18089SOL     OW59113   7.015   3.035   0.867
18089SOL    HW159114   6.960   2.951   0.860
18089SOL    HW259115   7.041   3.064   0.775
18090SOL     OW59116   7.052   2.452   0.992
18090SOL    HW159117   7.022   2.357   0.999
18090SOL    HW259118   7.125   2.468   1.058
18091SOL     OW59119   7.443   2.695   0.377
18091SOL    HW159120   7.485   2.631   0.441
18091SOL    HW259121   7.405   2.644   0.299
18092SOL     OW59122   6.074   3.247   0.174
18092SOL    HW159123   5.987   3.232   0.221
18092SOL    HW259124   6.057   3.273   0.079
18093SOL     OW59125   7.250   3.142   0.657
18093SOL    HW159126   7.349   3.150   0.671
18093SOL    HW259127   7.205   3.226   0.688
18094SOL     OW59128   6.976   2.437   0.078
18094SOL    HW159129   6.922   2.416   0.159
18094SOL    HW259130   7.067   2.396   0.087
18095SOL     OW59131   6.113   2.118   0.328
18095SOL    HW159132   6.140   2.059   0.253
18095SOL    HW259133   6.113   2.213   0.297
18096SOL     OW59134   7.340   3.085   1.588
18096SOL    HW159135   7.431   3.046   1.575
18096SOL    HW259136   7.348   3.181   1.612
18097SOL     OW59137   6.650   3.209   1.340
18097SOL    HW159138   6.570   3.186   1.395
18097SOL    HW259139   6.733   3.183   1.389
18098SOL     OW59140   7.178   3.491   1.625
18098SOL    HW159141   7.205   3.525   1.535
18098SOL    HW259142   7.257   3.453   1.671
18099SOL     OW59143   6.697   3.057   1.100
18099SOL    HW159144   6.657   3.101   1.181
18099SOL    HW259145   6.656   3.094   1.017
18100SOL     OW59146   7.224   2.961   1.079
18100SOL    HW159147   7.229   3.042   1.138
18100SOL    HW259148   7.138   2.963   1.028
18101SOL     OW59149   6.501   1.951   1.402
18101SOL    HW159150   6.526   1.931   1.307
18101SOL    HW259151   6.573   2.007   1.444
18102SOL     OW59152   6.566   2.978   1.719
18102SOL    HW159153   6.467   2.984   1.729
18102SOL    HW259154   6.589   2.898   1.663
18103SOL     OW59155   6.291   2.912   0.368
18103SOL    HW159156   6.277   2.919   0.467
18103SOL    HW259157   6.375   2.861   0.350
18104SOL     OW59158   5.996   2.675   1.251
18104SOL    HW159159   6.082   2.687   1.301
18104SOL    HW259160   5.954   2.588   1.278
18105SOL     OW59161   6.860   2.248   1.262
18105SOL    HW159162   6.881   2.322   1.326
18105SOL    HW259163   6.771   2.265   1.219
18106SOL     OW59164   5.650   3.426   1.331
18106SOL    HW159165   5.604   3.508   1.297
18106SOL    HW259166   5.748   3.445   1.340
18107SOL     OW59167   5.953   2.962   0.501
18107SOL    HW159168   5.946   3.045   0.445
18107SOL    HW259169   5.957   2.882   0.441
18108SOL     OW59170   6.152   2.399   0.865
18108SOL    HW159171   6.164   2.465   0.791
18108SOL    HW259172   6.198   2.433   0.948
18109SOL     OW59173   6.838   3.210   0.388
18109SOL    HW159174   6.888   3.287   0.428
18109SOL    HW259175   6.743   3.212   0.420
18110SOL     OW59176   6.858   3.307   1.142
18110SOL    HW159177   6.905   3.320   1.229
18110SOL    HW259178   6.792   3.233   1.151
18111SOL     OW59179   7.168   2.501   0.472
18111SOL    HW159180   7.137   2.562   0.545
18111SOL    HW259181   7.218   2.553   0.403
18112SOL     OW59182   5.940   3.372   1.329
18112SOL    HW159183   5.919   3.328   1.242
18112SOL    HW259184   6.037   3.398   1.332
18113SOL     OW59185   5.988   2.613   1.598
18113SOL    HW159186   6.056   2.668   1.551
18113SOL    HW259187   6.028   2.525   1.625
18114SOL     OW59188   7.173   2.641   1.670
18114SOL    HW159189   7.081   2.679   1.665
18114SOL    HW259190   7.233   2.688   1.605
18115SOL     OW59191   6.599   1.967   1.770
18115SOL    HW159192   6.605   2.052   1.718
18115SOL    HW259193   6.631   1.891   1.713
18116SOL     OW59194   6.090   1.912   1.740
18116SOL    HW159195   6.048   1.855   1.670
18116SOL    HW259196   6.024   1.981   1.772
18117SOL     OW59197   6.159   2.732   1.029
18117SOL    HW159198   6.203   2.821   1.020
18117SOL    HW259199   6.096   2.732   1.106
18118SOL     OW59200   6.946   2.724   1.045
18118SOL    HW159201   6.871   2.724   0.979
18118SOL    HW259202   6.983   2.632   1.054
18119SOL     OW59203   6.795   2.387   0.275
18119SOL    HW159204   6.808   2.303   0.329
18119SOL    HW259205   6.766   2.461   0.335
18120SOL     OW59206   5.893   2.075   1.231
18120SOL    HW159207   5.870   2.112   1.321
18120SOL    HW259208   5.863   1.980   1.225
18121SOL     OW59209   5.623   3.172   1.282
18121SOL    HW159210   5.676   3.123   1.350
18121SOL    HW259211   5.645   3.270   1.287
18122SOL     OW59212   6.318   2.496   1.064
18122SOL    HW159213   6.377   2.470   0.988
18122SOL    HW259214   6.290   2.592   1.053
18123SOL     OW59215   7.314   2.797   1.854
18123SOL    HW159216   7.268   2.790   1.765
18123SOL    HW259217   7.252   2.841   1.920
18124SOL     OW59218   5.893   1.925   0.618
18124SOL    HW159219   5.882   2.019   0.651
18124SOL    HW259220   5.888   1.862   0.695
18125SOL     OW59221   7.208   2.229   0.374
18125SOL    HW159222   7.210   2.153   0.438
18125SOL    HW259223   7.160   2.306   0.414
18126SOL     OW59224   6.609   2.628   0.966
18126SOL    HW159225   6.624   2.649   1.062
18126SOL    HW259226   6.579   2.533   0.957
18127SOL     OW59227   6.566   3.435   1.700
18127SOL    HW159228   6.546   3.479   1.612
18127SOL    HW259229   6.605   3.344   1.684
18128SOL     OW59230   7.445   3.380   1.605
18128SOL    HW159231   7.459   3.407   1.510
18128SOL    HW259232   7.528   3.402   1.658
18129SOL     OW59233   5.936   2.760   1.804
18129SOL    HW159234   6.012   2.804   1.852
18129SOL    HW259235   5.971   2.713   1.722
18130SOL     OW59236   7.126   2.136   0.125
18130SOL    HW159237   7.065   2.061   0.148
18130SOL    HW259238   7.148   2.188   0.208
18131SOL     OW59239   6.889   2.700   0.042
18131SOL    HW159240   6.923   2.607   0.057
18131SOL    HW259241   6.907   2.727  -0.053
18132SOL     OW59242   6.654   3.195   0.849
18132SOL    HW159243   6.661   3.111   0.794
18132SOL    HW259244   6.716   3.264   0.813
18133SOL     OW59245   5.905   2.672   0.949
18133SOL    HW159246   5.998   2.708   0.954
18133SOL    HW259247   5.899   2.587   1.001
18134SOL     OW59248   5.925   2.371   1.006
18134SOL    HW159249   5.873   2.288   0.989
18134SOL    HW259250   6.002   2.376   0.942
18135SOL     OW59251   6.724   2.242   1.678
18135SOL    HW159252   6.679   2.305   1.742
18135SOL    HW259253   6.817   2.273   1.661
18136SOL     OW59254   6.746   2.069   1.477
18136SOL    HW159255   6.746   2.133   1.554
18136SOL    HW259256   6.774   2.117   1.394
18137SOL     OW59257   5.674   3.663   0.927
18137SOL    HW159258   5.632   3.577   0.900
18137SOL    HW259259   5.768   3.666   0.893
18138SOL     OW59260   6.090   3.430   0.910
18138SOL    HW159261   6.156   3.504   0.919
18138SOL    HW259262   6.134   3.351   0.868
18139SOL     OW59263   6.588   2.658   1.238
18139SOL    HW159264   6.629   2.626   1.324
18139SOL    HW259265   6.492   2.631   1.235
18140SOL     OW59266   5.626   2.406   1.114
18140SOL    HW159267   5.711   2.373   1.073
18140SOL    HW259268   5.639   2.421   1.212
18141SOL     OW59269   5.775   2.382   1.722
18141SOL    HW159270   5.834   2.342   1.652
18141SOL    HW259271   5.717   2.453   1.681
18142SOL     OW59272   6.955   2.812   1.660
18142SOL    HW159273   6.994   2.901   1.680
18142SOL    HW259274   6.965   2.792   1.563
18143SOL     OW59275   6.401   2.434   0.325
18143SOL    HW159276   6.408   2.345   0.279
18143SOL    HW259277   6.307   2.468   0.317
18144SOL     OW59278   7.243   2.466   1.206
18144SOL    HW159279   7.205   2.397   1.268
18144SOL    HW259280   7.325   2.430   1.162
18145SOL     OW59281   5.838   3.426   1.744
18145SOL    HW159282   5.808   3.483   1.820
18145SOL    HW259283   5.831   3.329   1.770
18146SOL     OW59284   6.257   2.326   1.269
18146SOL    HW159285   6.223   2.237   1.239
18146SOL    HW259286   6.283   2.380   1.189
18147SOL     OW59287   6.516   3.540   1.465
18147SOL    HW159288   6.492   3.522   1.370
18147SOL    HW259289   6.546   3.634   1.475
18148SOL     OW59290   6.059   2.362   0.191
18148SOL    HW159291   6.120   2.442   0.195
18148SOL    HW259292   5.964   2.393   0.198
18149SOL     OW59293   5.745   2.999   1.466
18149SOL    HW159294   5.767   2.938   1.542
18149SOL    HW259295   5.755   2.950   1.380
18150SOL     OW59296   6.933   2.921   1.234
18150SOL    HW159297   6.957   2.858   1.160
18150SOL    HW259298   6.843   2.961   1.216
18151SOL     OW59299   6.888   2.717   0.309
18151SOL    HW159300   6.802   2.686   0.351
18151SOL    HW259301   6.884   2.703   0.210
18152SOL     OW59302   7.345   3.609   1.154
18152SOL    HW159303   7.406   3.639   1.081
18152SOL    HW259304   7.307   3.520   1.132
18153SOL     OW59305   6.838   3.593   1.128
18153SOL    HW159306   6.922   3.598   1.074
18153SOL    HW259307   6.815   3.497   1.146
18154SOL     OW59308   5.669   3.120   1.022
18154SOL    HW159309   5.664   3.119   1.122
18154SOL    HW259310   5.586   3.079   0.984
18155SOL     OW59311   6.274   3.524   1.716
18155SOL    HW159312   6.218   3.605   1.725
18155SOL    HW259313   6.326   3.528   1.630
18156SOL     OW59314   6.489   1.948   0.133
18156SOL    HW159315   6.540   1.949   0.047
18156SOL    HW259316   6.545   1.906   0.204
18157SOL     OW59317   7.312   1.997   0.523
18157SOL    HW159318   7.385   1.980   0.456
18157SOL    HW259319   7.281   1.910   0.561
18158SOL     OW59320   5.716   3.656   1.851
18158SOL    HW159321   5.675   3.582   1.904
18158SOL    HW259322   5.780   3.707   1.909
18159SOL     OW59323   6.866   2.789   0.672
18159SOL    HW159324   6.926   2.708   0.674
18159SOL    HW259325   6.906   2.858   0.612
18160SOL     OW59326   6.416   3.135   1.422
18160SOL    HW159327   6.411   3.168   1.517
18160SOL    HW259328   6.330   3.154   1.376
18161SOL     OW59329   6.258   3.478   0.154
18161SOL    HW159330   6.267   3.488   0.055
18161SOL    HW259331   6.218   3.389   0.175
18162SOL     OW59332   7.236   3.582   1.394
18162SOL    HW159333   7.289   3.592   1.310
18162SOL    HW259334   7.209   3.672   1.428
18163SOL     OW59335   7.427   2.037   0.963
18163SOL    HW159336   7.466   1.952   0.927
18163SOL    HW259337   7.329   2.039   0.944
18164SOL     OW59338   5.849   2.188   0.720
18164SOL    HW159339   5.770   2.239   0.686
18164SOL    HW259340   5.840   2.173   0.818
18165SOL     OW59341   6.408   2.864   1.372
18165SOL    HW159342   6.448   2.863   1.280
18165SOL    HW259343   6.418   2.956   1.412
18166SOL     OW59344   6.502   2.772   0.291
18166SOL    HW159345   6.565   2.810   0.223
18166SOL    HW259346   6.542   2.689   0.330
18167SOL     OW59347   5.958   3.150   1.490
18167SOL    HW159348   5.945   3.243   1.456
18167SOL    HW259349   5.874   3.098   1.477
18168SOL     OW59350   7.200   3.154   1.289
18168SOL    HW159351   7.260   3.157   1.369
18168SOL    HW259352   7.125   3.218   1.302
18169SOL     OW59353   6.625   2.960   0.696
18169SOL    HW159354   6.555   2.913   0.750
18169SOL    HW259355   6.684   2.892   0.653
18170SOL     OW59356   6.600   2.098   0.971
18170SOL    HW159357   6.592   2.062   0.878
18170SOL    HW259358   6.598   2.022   1.036
18171SOL     OW59359   6.176   3.349   0.491
18171SOL    HW159360   6.218   3.291   0.421
18171SOL    HW259361   6.132   3.428   0.447
18172SOL     OW59362   7.295   2.247   1.381
18172SOL    HW159363   7.368   2.316   1.385
18172SOL    HW259364   7.323   2.172   1.322
18173SOL     OW59365   5.691   2.875   1.726
18173SOL    HW159366   5.614   2.842   1.780
18173SOL    HW259367   5.776   2.845   1.768
18174SOL     OW59368   6.258   2.065   1.489
18174SOL    HW159369   6.348   2.049   1.449
18174SOL    HW259370   6.266   2.070   1.588
18175SOL     OW59371   5.661   2.207   0.033
18175SOL    HW159372   5.569   2.179   0.004
18175SOL    HW259373   5.692   2.284  -0.023
18176SOL     OW59374   7.026   2.718   1.398
18176SOL    HW159375   6.969   2.770   1.335
18176SOL    HW259376   7.122   2.730   1.374
18177SOL     OW59377   5.658   2.028   0.318
18177SOL    HW159378   5.641   2.111   0.264
18177SOL    HW259379   5.748   1.991   0.296
18178SOL     OW59380   6.769   3.197   0.119
18178SOL    HW159381   6.670   3.186   0.121
18178SOL    HW259382   6.803   3.212   0.212
18179SOL     OW59383   6.199   2.704   1.431
18179SOL    HW159384   6.255   2.785   1.414
18179SOL    HW259385   6.258   2.624   1.434
18180SOL     OW59386   7.079   3.629   0.959
18180SOL    HW159387   7.112   3.693   0.890
18180SOL    HW259388   7.145   3.623   1.034
18181SOL     OW59389   6.302   2.427   1.708
18181SOL    HW159390   6.321   2.492   1.782
18181SOL    HW259391   6.362   2.347   1.717
18182SOL     OW59392   7.036   3.082   1.633
18182SOL    HW159393   7.027   3.072   1.732
18182SOL    HW259394   7.132   3.075   1.607
18183SOL     OW59395   5.976   3.603   1.560
18183SOL    HW159396   5.885   3.644   1.558
18183SOL    HW259397   5.969   3.509   1.592
18184SOL     OW59398   7.260   2.745   1.254
18184SOL    HW159399   7.233   2.656   1.217
18184SOL    HW259400   7.261   2.813   1.181
18185SOL     OW59401   6.180   2.607   0.652
18185SOL    HW159402   6.230   2.692   0.633
18185SOL    HW259403   6.092   2.609   0.604
18186SOL     OW59404   7.363   2.204   1.642
18186SOL    HW159405   7.346   2.235   1.548
18186SOL    HW259406   7.279   2.167   1.680
18187SOL     OW59407   7.316   2.796   1.517
18187SOL    HW159408   7.354   2.887   1.532
18187SOL    HW259409   7.308   2.779   1.418
18188SOL     OW59410   6.445   3.236   0.016
18188SOL    HW159411   6.399   3.251   0.104
18188SOL    HW259412   6.489   3.321  -0.014
18189SOL     OW59413   6.247   3.652   0.953
18189SOL    HW159414   6.201   3.740   0.940
18189SOL    HW259415   6.346   3.664   0.946
18190SOL     OW59416   6.445   2.818   0.861
18190SOL    HW159417   6.499   2.749   0.909
18190SOL    HW259418   6.413   2.887   0.927
18191SOL     OW59419   6.669   2.846   0.087
18191SOL    HW159420   6.646   2.899   0.005
18191SOL    HW259421   6.750   2.790   0.068
18192SOL     OW59422   7.447   3.431   0.851
18192SOL    HW159423   7.376   3.419   0.781
18192SOL    HW259424   7.448   3.352   0.911
18193SOL     OW59425   5.807   3.176   1.844
18193SOL    HW159426   5.742   3.103   1.823
18193SOL    HW259427   5.811   3.190   1.942
18194SOL     OW59428   5.665   3.102   0.653
18194SOL    HW159429   5.664   3.055   0.741
18194SOL    HW259430   5.747   3.074   0.602
18195SOL     OW59431   6.258   3.253   1.624
18195SOL    HW159432   6.180   3.203   1.662
18195SOL    HW259433   6.255   3.348   1.655
18196SOL     OW59434   7.410   2.054   1.227
18196SOL    HW159435   7.406   1.964   1.271
18196SOL    HW259436   7.413   2.043   1.128
18197SOL     OW59437   6.014   2.286   0.520
18197SOL    HW159438   6.044   2.214   0.458
18197SOL    HW259439   5.975   2.246   0.603
18198SOL     OW59440   7.291   3.349   1.104
18198SOL    HW159441   7.198   3.324   1.077
18198SOL    HW259442   7.317   3.299   1.186
18199SOL     OW59443   5.903   2.409   1.280
18199SOL    HW159444   5.941   2.350   1.352
18199SOL    HW259445   5.943   2.383   1.192
18200SOL     OW59446   6.398   3.448   0.687
18200SOL    HW159447   6.430   3.458   0.593
18200SOL    HW259448   6.319   3.386   0.689
18201SOL     OW59449   7.010   2.076   1.112
18201SOL    HW159450   7.062   2.011   1.167
18201SOL    HW259451   6.961   2.139   1.173
18202SOL     OW59452   6.587   1.896   1.154
18202SOL    HW159453   6.524   1.824   1.123
18202SOL    HW259454   6.680   1.860   1.154
18203SOL     OW59455   6.356   3.192   0.301
18203SOL    HW159456   6.310   3.105   0.318
18203SOL    HW259457   6.447   3.189   0.342
18204SOL     OW59458   6.204   3.429   1.284
18204SOL    HW159459   6.199   3.511   1.341
18204SOL    HW259460   6.293   3.426   1.239
18205SOL     OW59461   6.938   1.914   0.168
18205SOL    HW159462   6.973   1.873   0.084
18205SOL    HW259463   6.848   1.876   0.188
18206SOL     OW59464   6.886   2.315   0.691
18206SOL    HW159465   6.827   2.395   0.695
18206SOL    HW259466   6.901   2.280   0.784
18207SOL     OW59467   7.179   2.083   0.882
18207SOL    HW159468   7.095   2.082   0.936
18207SOL    HW259469   7.181   2.166   0.826
18208SOL     OW59470   5.625   2.939   0.300
18208SOL    HW159471   5.724   2.928   0.291
18208SOL    HW259472   5.585   2.853   0.332
18209SOL     OW59473   6.461   3.508   0.337
18209SOL    HW159474   6.384   3.473   0.283
18209SOL    HW259475   6.429   3.579   0.399
18210SOL     OW59476   5.816   2.490   1.975
18210SOL    HW159477   5.723   2.488   2.012
18210SOL    HW259478   5.817   2.451   1.883
18211SOL     OW59479   5.811   2.137   2.858
18211SOL    HW159480   5.846   2.120   2.950
18211SOL    HW259481   5.723   2.092   2.846
18212SOL     OW59482   5.605   2.230   2.509
18212SOL    HW159483   5.523   2.273   2.548
18212SOL    HW259484   5.577   2.157   2.446
18213SOL     OW59485   6.155   3.137   3.027
18213SOL    HW159486   6.062   3.130   2.990
18213SOL    HW259487   6.166   3.226   3.071
18214SOL     OW59488   7.141   3.373   2.565
18214SOL    HW159489   7.084   3.357   2.646
18214SOL    HW259490   7.082   3.383   2.485
18215SOL     OW59491   6.721   2.565   2.579
18215SOL    HW159492   6.778   2.643   2.554
18215SOL    HW259493   6.661   2.591   2.655
18216SOL     OW59494   6.354   3.006   2.885
18216SOL    HW159495   6.276   3.023   2.945
18216SOL    HW259496   6.388   3.093   2.849
18217SOL     OW59497   6.436   2.660   3.685
18217SOL    HW159498   6.432   2.736   3.750
18217SOL    HW259499   6.458   2.696   3.594
18218SOL     OW59500   6.271   2.874   2.527
18218SOL    HW159501   6.340   2.858   2.597
18218SOL    HW259502   6.198   2.931   2.565
18219SOL     OW59503   6.272   3.023   3.665
18219SOL    HW159504   6.332   3.102   3.679
18219SOL    HW259505   6.186   3.054   3.624
18220SOL     OW59506   5.921   3.297   2.923
18220SOL    HW159507   5.843   3.266   2.870
18220SOL    HW259508   5.979   3.355   2.866
18221SOL     OW59509   7.046   3.367   3.201
18221SOL    HW159510   7.070   3.461   3.227
18221SOL    HW259511   7.030   3.313   3.283
18222SOL     OW59512   6.024   2.254   3.361
18222SOL    HW159513   6.106   2.198   3.370
18222SOL    HW259514   5.943   2.196   3.365
18223SOL     OW59515   7.189   2.309   2.599
18223SOL    HW159516   7.115   2.355   2.549
18223SOL    HW259517   7.240   2.377   2.652
18224SOL     OW59518   5.817   3.575   2.345
18224SOL    HW159519   5.851   3.652   2.399
18224SOL    HW259520   5.861   3.575   2.255
18225SOL     OW59521   6.713   3.203   3.552
18225SOL    HW159522   6.760   3.203   3.640
18225SOL    HW259523   6.665   3.116   3.541
18226SOL     OW59524   5.816   3.296   2.400
18226SOL    HW159525   5.790   3.392   2.400
18226SOL    HW259526   5.745   3.242   2.445
18227SOL     OW59527   5.826   2.953   2.748
18227SOL    HW159528   5.840   2.869   2.800
18227SOL    HW259529   5.771   3.017   2.803
18228SOL     OW59530   6.206   3.648   3.301
18228SOL    HW159531   6.114   3.631   3.336
18228SOL    HW259532   6.234   3.740   3.327
18229SOL     OW59533   6.192   2.826   1.985
18229SOL    HW159534   6.199   2.910   1.931
18229SOL    HW259535   6.238   2.839   2.073
18230SOL     OW59536   7.180   1.976   3.342
18230SOL    HW159537   7.162   2.043   3.270
18230SOL    HW259538   7.177   2.022   3.431
18231SOL     OW59539   5.708   2.505   2.425
18231SOL    HW159540   5.663   2.417   2.442
18231SOL    HW259541   5.707   2.559   2.509
18232SOL     OW59542   7.428   3.629   2.221
18232SOL    HW159543   7.482   3.600   2.301
18232SOL    HW259544   7.458   3.719   2.192
18233SOL     OW59545   5.613   3.458   1.979
18233SOL    HW159546   5.594   3.362   2.000
18233SOL    HW259547   5.580   3.516   2.054
18234SOL     OW59548   7.275   2.784   2.474
18234SOL    HW159549   7.370   2.755   2.482
18234SOL    HW259550   7.267   2.849   2.399
18235SOL     OW59551   7.227   2.970   2.294
18235SOL    HW159552   7.313   2.972   2.242
18235SOL    HW259553   7.241   3.017   2.382
18236SOL     OW59554   5.699   2.599   3.459
18236SOL    HW159555   5.787   2.586   3.504
18236SOL    HW259556   5.686   2.696   3.437
18237SOL     OW59557   6.199   3.227   2.588
18237SOL    HW159558   6.150   3.140   2.597
18237SOL    HW259559   6.176   3.270   2.501
18238SOL     OW59560   6.879   3.090   3.285
18238SOL    HW159561   6.916   3.017   3.227
18238SOL    HW259562   6.931   3.095   3.370
18239SOL     OW59563   6.395   1.866   2.364
18239SOL    HW159564   6.435   1.957   2.355
18239SOL    HW259565   6.295   1.874   2.370
18240SOL     OW59566   5.783   2.838   3.126
18240SOL    HW159567   5.872   2.793   3.112
18240SOL    HW259568   5.710   2.773   3.107
18241SOL     OW59569   7.111   2.861   2.052
18241SOL    HW159570   7.048   2.785   2.065
18241SOL    HW259571   7.159   2.879   2.138
18242SOL     OW59572   6.773   3.654   3.478
18242SOL    HW159573   6.797   3.714   3.402
18242SOL    HW259574   6.780   3.559   3.448
18243SOL     OW59575   5.903   2.113   3.663
18243SOL    HW159576   5.974   2.184   3.669
18243SOL    HW259577   5.815   2.152   3.691
18244SOL     OW59578   7.052   3.279   2.815
18244SOL    HW159579   6.993   3.285   2.895
18244SOL    HW259580   7.037   3.191   2.769
18245SOL     OW59581   7.253   3.576   2.434
18245SOL    HW159582   7.212   3.553   2.346
18245SOL    HW259583   7.235   3.502   2.499
18246SOL     OW59584   6.184   2.591   2.132
18246SOL    HW159585   6.208   2.660   2.064
18246SOL    HW259586   6.106   2.624   2.186
18247SOL     OW59587   7.162   3.524   2.169
18247SOL    HW159588   7.251   3.570   2.172
18247SOL    HW259589   7.141   3.500   2.074
18248SOL     OW59590   6.393   2.467   3.327
18248SOL    HW159591   6.346   2.464   3.416
18248SOL    HW259592   6.342   2.412   3.261
18249SOL     OW59593   6.980   2.331   3.536
18249SOL    HW159594   6.960   2.374   3.624
18249SOL    HW259595   7.058   2.269   3.545
18250SOL     OW59596   6.559   2.752   3.434
18250SOL    HW159597   6.605   2.668   3.405
18250SOL    HW259598   6.503   2.786   3.359
18251SOL     OW59599   6.577   2.272   3.104
18251SOL    HW159600   6.500   2.306   3.158
18251SOL    HW259601   6.543   2.221   3.025
18252SOL     OW59602   6.627   2.563   2.291
18252SOL    HW159603   6.653   2.559   2.387
18252SOL    HW259604   6.542   2.512   2.277
18253SOL     OW59605   5.662   2.673   2.651
18253SOL    HW159606   5.761   2.661   2.660
18253SOL    HW259607   5.638   2.768   2.672
18254SOL     OW59608   5.716   3.683   3.433
18254SOL    HW159609   5.706   3.668   3.532
18254SOL    HW259610   5.630   3.719   3.397
18255SOL     OW59611   6.451   2.210   2.057
18255SOL    HW159612   6.510   2.273   2.008
18255SOL    HW259613   6.470   2.116   2.028
18256SOL     OW59614   7.305   2.447   3.693
18256SOL    HW159615   7.279   2.536   3.657
18256SOL    HW259616   7.303   2.379   3.620
18257SOL     OW59617   6.948   3.006   2.407
18257SOL    HW159618   7.031   2.977   2.359
18257SOL    HW259619   6.899   3.073   2.351
18258SOL     OW59620   6.136   2.058   2.747
18258SOL    HW159621   6.131   2.053   2.847
18258SOL    HW259622   6.138   2.154   2.718
18259SOL     OW59623   6.594   3.318   2.339
18259SOL    HW159624   6.548   3.390   2.287
18259SOL    HW259625   6.590   3.338   2.437
18260SOL     OW59626   5.937   3.663   2.715
18260SOL    HW159627   5.987   3.577   2.721
18260SOL    HW259628   6.002   3.740   2.712
18261SOL     OW59629   7.381   2.928   2.735
18261SOL    HW159630   7.319   2.913   2.659
18261SOL    HW259631   7.329   2.939   2.820
18262SOL     OW59632   6.813   3.412   3.368
18262SOL    HW159633   6.819   3.335   3.432
18262SOL    HW259634   6.761   3.386   3.288
18263SOL     OW59635   5.907   2.805   2.104
18263SOL    HW159636   5.989   2.844   2.062
18263SOL    HW259637   5.880   2.723   2.055
18264SOL     OW59638   7.044   2.597   2.590
18264SOL    HW159639   7.039   2.532   2.665
18264SOL    HW259640   7.124   2.656   2.603
18265SOL     OW59641   6.047   3.128   3.589
18265SOL    HW159642   5.997   3.129   3.503
18265SOL    HW259643   5.984   3.110   3.665
18266SOL     OW59644   6.697   3.638   2.099
18266SOL    HW159645   6.637   3.576   2.149
18266SOL    HW259646   6.728   3.594   2.014
18267SOL     OW59647   5.788   2.147   3.360
18267SOL    HW159648   5.708   2.207   3.347
18267SOL    HW259649   5.778   2.098   3.446
18268SOL     OW59650   7.218   3.239   1.943
18268SOL    HW159651   7.186   3.333   1.933
18268SOL    HW259652   7.142   3.176   1.931
18269SOL     OW59653   6.986   1.969   2.288
18269SOL    HW159654   6.962   1.932   2.198
18269SOL    HW259655   7.085   1.985   2.292
18270SOL     OW59656   5.835   3.647   3.103
18270SOL    HW159657   5.892   3.582   3.153
18270SOL    HW259658   5.819   3.614   3.010
18271SOL     OW59659   6.526   3.560   2.766
18271SOL    HW159660   6.606   3.503   2.787
18271SOL    HW259661   6.477   3.520   2.689
18272SOL     OW59662   5.968   2.562   2.342
18272SOL    HW159663   6.013   2.472   2.339
18272SOL    HW259664   5.874   2.551   2.375
18273SOL     OW59665   7.133   2.084   3.591
18273SOL    HW159666   7.128   2.121   3.683
18273SOL    HW259667   7.061   2.015   3.579
18274SOL     OW59668   6.200   1.984   1.979
18274SOL    HW159669   6.298   1.962   1.986
18274SOL    HW259670   6.169   1.967   1.886
18275SOL     OW59671   6.367   2.126   3.611
18275SOL    HW159672   6.434   2.065   3.654
18275SOL    HW259673   6.294   2.145   3.676
18276SOL     OW59674   6.474   3.376   3.057
18276SOL    HW159675   6.451   3.351   2.963
18276SOL    HW259676   6.535   3.307   3.096
18277SOL     OW59677   6.937   2.452   3.295
18277SOL    HW159678   6.965   2.409   3.380
18277SOL    HW259679   6.962   2.548   3.296
18278SOL     OW59680   6.389   3.264   2.786
18278SOL    HW159681   6.479   3.278   2.744
18278SOL    HW259682   6.318   3.266   2.715
18279SOL     OW59683   6.508   2.365   2.761
18279SOL    HW159684   6.483   2.356   2.665
18279SOL    HW259685   6.556   2.283   2.792
18280SOL     OW59686   6.125   1.926   2.374
18280SOL    HW159687   6.044   1.927   2.432
18280SOL    HW259688   6.128   2.009   2.319
18281SOL     OW59689   7.020   3.050   1.903
18281SOL    HW159690   7.052   2.974   1.960
18281SOL    HW259691   6.928   3.077   1.933
18282SOL     OW59692   5.883   1.897   2.033
18282SOL    HW159693   5.932   1.981   2.012
18282SOL    HW259694   5.945   1.832   2.078
18283SOL     OW59695   6.521   2.098   2.342
18283SOL    HW159696   6.473   2.139   2.264
18283SOL    HW259697   6.620   2.096   2.323
18284SOL     OW59698   6.662   2.545   3.326
18284SOL    HW159699   6.582   2.484   3.329
18284SOL    HW259700   6.743   2.492   3.302
18285SOL     OW59701   6.813   3.432   2.655
18285SOL    HW159702   6.834   3.506   2.590
18285SOL    HW259703   6.881   3.432   2.728
18286SOL     OW59704   6.045   3.014   2.603
18286SOL    HW159705   5.974   2.987   2.668
18286SOL    HW259706   6.019   2.986   2.510
18287SOL     OW59707   6.618   2.411   1.878
18287SOL    HW159708   6.577   2.493   1.839
18287SOL    HW259709   6.682   2.437   1.951
18288SOL     OW59710   5.664   2.418   3.248
18288SOL    HW159711   5.756   2.417   3.207
18288SOL    HW259712   5.658   2.492   3.315
18289SOL     OW59713   6.147   2.084   3.009
18289SOL    HW159714   6.185   2.000   3.046
18289SOL    HW259715   6.059   2.103   3.053
18290SOL     OW59716   6.452   2.316   2.504
18290SOL    HW159717   6.420   2.388   2.442
18290SOL    HW259718   6.476   2.235   2.451
18291SOL     OW59719   6.603   1.901   2.615
18291SOL    HW159720   6.531   1.906   2.546
18291SOL    HW259721   6.579   1.832   2.684
18292SOL     OW59722   7.052   2.452   2.854
18292SOL    HW159723   7.022   2.357   2.861
18292SOL    HW259724   7.125   2.468   2.920
18293SOL     OW59725   7.443   2.695   2.239
18293SOL    HW159726   7.485   2.631   2.303
18293SOL    HW259727   7.405   2.644   2.161
18294SOL     OW59728   6.074   3.247   2.036
18294SOL    HW159729   5.987   3.232   2.083
18294SOL    HW259730   6.057   3.273   1.941
18295SOL     OW59731   7.250   3.142   2.519
18295SOL    HW159732   7.349   3.150   2.533
18295SOL    HW259733   7.205   3.226   2.550
18296SOL     OW59734   6.976   2.437   1.940
18296SOL    HW159735   6.922   2.416   2.021
18296SOL    HW259736   7.067   2.396   1.949
18297SOL     OW59737   6.113   2.118   2.190
18297SOL    HW159738   6.140   2.059   2.115
18297SOL    HW259739   6.113   2.213   2.159
18298SOL     OW59740   7.340   3.085   3.450
18298SOL    HW159741   7.431   3.046   3.437
18298SOL    HW259742   7.348   3.181   3.474
18299SOL     OW59743   6.650   3.209   3.202
18299SOL    HW159744   6.570   3.186   3.257
18299SOL    HW259745   6.733   3.183   3.251
18300SOL     OW59746   7.178   3.491   3.487
18300SOL    HW159747   7.205   3.525   3.397
18300SOL    HW259748   7.257   3.453   3.533
18301SOL     OW59749   6.697   3.057   2.962
18301SOL    HW159750   6.657   3.101   3.043
18301SOL    HW259751   6.656   3.094   2.879
18302SOL     OW59752   7.224   2.961   2.941
18302SOL    HW159753   7.229   3.042   3.000
18302SOL    HW259754   7.138   2.963   2.890
18303SOL     OW59755   6.501   1.951   3.264
18303SOL    HW159756   6.526   1.931   3.169
18303SOL    HW259757   6.573   2.007   3.306
18304SOL     OW59758   6.566   2.978   3.581
18304SOL    HW159759   6.467   2.984   3.591
18304SOL    HW259760   6.589   2.898   3.525
18305SOL     OW59761   6.291   2.912   2.230
18305SOL    HW159762   6.277   2.919   2.329
18305SOL    HW259763   6.375   2.861   2.212
18306SOL     OW59764   5.996   2.675   3.113
18306SOL    HW159765   6.082   2.687   3.163
18306SOL    HW259766   5.954   2.588   3.140
18307SOL     OW59767   6.860   2.248   3.124
18307SOL    HW159768   6.881   2.322   3.188
18307SOL    HW259769   6.771   2.265   3.081
18308SOL     OW59770   5.650   3.426   3.193
18308SOL    HW159771   5.604   3.508   3.159
18308SOL    HW259772   5.748   3.445   3.202
18309SOL     OW59773   5.953   2.962   2.363
18309SOL    HW159774   5.946   3.045   2.307
18309SOL    HW259775   5.957   2.882   2.303
18310SOL     OW59776   6.152   2.399   2.727
18310SOL    HW159777   6.164   2.465   2.653
18310SOL    HW259778   6.198   2.433   2.810
18311SOL     OW59779   6.838   3.210   2.250
18311SOL    HW159780   6.888   3.287   2.290
18311SOL    HW259781   6.743   3.212   2.282
18312SOL     OW59782   6.858   3.307   3.004
18312SOL    HW159783   6.905   3.320   3.091
18312SOL    HW259784   6.792   3.233   3.013
18313SOL     OW59785   7.168   2.501   2.334
18313SOL    HW159786   7.137   2.562   2.407
18313SOL    HW259787   7.218   2.553   2.265
18314SOL     OW59788   5.940   3.372   3.191
18314SOL    HW159789   5.919   3.328   3.104
18314SOL    HW259790   6.037   3.398   3.194
18315SOL     OW59791   5.988   2.613   3.460
18315SOL    HW159792   6.056   2.668   3.413
18315SOL    HW259793   6.028   2.525   3.487
18316SOL     OW59794   7.173   2.641   3.532
18316SOL    HW159795   7.081   2.679   3.527
18316SOL    HW259796   7.233   2.688   3.467
18317SOL     OW59797   6.599   1.967   3.632
18317SOL    HW159798   6.605   2.052   3.580
18317SOL    HW259799   6.631   1.891   3.575
18318SOL     OW59800   6.090   1.912   3.602
18318SOL    HW159801   6.048   1.855   3.532
18318SOL    HW259802   6.024   1.981   3.634
18319SOL     OW59803   6.159   2.732   2.891
18319SOL    HW159804   6.203   2.821   2.882
18319SOL    HW259805   6.096   2.732   2.968
18320SOL     OW59806   6.946   2.724   2.907
18320SOL    HW159807   6.871   2.724   2.841
18320SOL    HW259808   6.983   2.632   2.916
18321SOL     OW59809   6.795   2.387   2.137
18321SOL    HW159810   6.808   2.303   2.191
18321SOL    HW259811   6.766   2.461   2.197
18322SOL     OW59812   5.893   2.075   3.093
18322SOL    HW159813   5.870   2.112   3.183
18322SOL    HW259814   5.863   1.980   3.087
18323SOL     OW59815   5.623   3.172   3.144
18323SOL    HW159816   5.676   3.123   3.212
18323SOL    HW259817   5.645   3.270   3.149
18324SOL     OW59818   6.318   2.496   2.926
18324SOL    HW159819   6.377   2.470   2.850
18324SOL    HW259820   6.290   2.592   2.915
18325SOL     OW59821   7.314   2.797   3.716
18325SOL    HW159822   7.268   2.790   3.627
18325SOL    HW259823   7.252   2.841   3.782
18326SOL     OW59824   5.893   1.925   2.480
18326SOL    HW159825   5.882   2.019   2.513
18326SOL    HW259826   5.888   1.862   2.557
18327SOL     OW59827   7.208   2.229   2.236
18327SOL    HW159828   7.210   2.153   2.300
18327SOL    HW259829   7.160   2.306   2.276
18328SOL     OW59830   6.609   2.628   2.828
18328SOL    HW159831   6.624   2.649   2.924
18328SOL    HW259832   6.579   2.533   2.819
18329SOL     OW59833   6.566   3.435   3.562
18329SOL    HW159834   6.546   3.479   3.474
18329SOL    HW259835   6.605   3.344   3.546
18330SOL     OW59836   7.445   3.380   3.467
18330SOL    HW159837   7.459   3.407   3.372
18330SOL    HW259838   7.528   3.402   3.520
18331SOL     OW59839   5.936   2.760   3.666
18331SOL    HW159840   6.012   2.804   3.714
18331SOL    HW259841   5.971   2.713   3.584
18332SOL     OW59842   7.126   2.136   1.987
18332SOL    HW159843   7.065   2.061   2.010
18332SOL    HW259844   7.148   2.188   2.070
18333SOL     OW59845   6.889   2.700   1.904
18333SOL    HW159846   6.923   2.607   1.919
18333SOL    HW259847   6.907   2.727   1.809
18334SOL     OW59848   6.654   3.195   2.711
18334SOL    HW159849   6.661   3.111   2.656
18334SOL    HW259850   6.716   3.264   2.675
18335SOL     OW59851   5.905   2.672   2.811
18335SOL    HW159852   5.998   2.708   2.816
18335SOL    HW259853   5.899   2.587   2.863
18336SOL     OW59854   5.925   2.371   2.868
18336SOL    HW159855   5.873   2.288   2.851
18336SOL    HW259856   6.002   2.376   2.804
18337SOL     OW59857   6.724   2.242   3.540
18337SOL    HW159858   6.679   2.305   3.604
18337SOL    HW259859   6.817   2.273   3.523
18338SOL     OW59860   6.746   2.069   3.339
18338SOL    HW159861   6.746   2.133   3.416
18338SOL    HW259862   6.774   2.117   3.256
18339SOL     OW59863   5.594   3.188   2.062
18339SOL    HW159864   5.501   3.209   2.031
18339SOL    HW259865   5.604   3.089   2.075
18340SOL     OW59866   5.674   3.663   2.789
18340SOL    HW159867   5.632   3.577   2.762
18340SOL    HW259868   5.768   3.666   2.755
18341SOL     OW59869   6.090   3.430   2.772
18341SOL    HW159870   6.156   3.504   2.781
18341SOL    HW259871   6.134   3.351   2.730
18342SOL     OW59872   5.626   2.406   2.976
18342SOL    HW159873   5.711   2.373   2.935
18342SOL    HW259874   5.639   2.421   3.074
18343SOL     OW59875   5.775   2.382   3.584
18343SOL    HW159876   5.834   2.342   3.514
18343SOL    HW259877   5.717   2.453   3.543
18344SOL     OW59878   6.955   2.812   3.522
18344SOL    HW159879   6.994   2.901   3.542
18344SOL    HW259880   6.965   2.792   3.425
18345SOL     OW59881   6.401   2.434   2.187
18345SOL    HW159882   6.408   2.345   2.141
18345SOL    HW259883   6.307   2.468   2.179
18346SOL     OW59884   7.243   2.466   3.068
18346SOL    HW159885   7.205   2.397   3.130
18346SOL    HW259886   7.325   2.430   3.024
18347SOL     OW59887   5.838   3.426   3.606
18347SOL    HW159888   5.808   3.483   3.682
18347SOL    HW259889   5.831   3.329   3.632
18348SOL     OW59890   6.257   2.326   3.131
18348SOL    HW159891   6.223   2.237   3.101
18348SOL    HW259892   6.283   2.380   3.051
18349SOL     OW59893   6.516   3.540   3.327
18349SOL    HW159894   6.492   3.522   3.232
18349SOL    HW259895   6.546   3.634   3.337
18350SOL     OW59896   6.059   2.362   2.053
18350SOL    HW159897   6.120   2.442   2.057
18350SOL    HW259898   5.964   2.393   2.060
18351SOL     OW59899   5.745   2.999   3.328
18351SOL    HW159900   5.767   2.938   3.404
18351SOL    HW259901   5.755   2.950   3.242
18352SOL     OW59902   6.933   2.921   3.096
18352SOL    HW159903   6.957   2.858   3.022
18352SOL    HW259904   6.843   2.961   3.078
18353SOL     OW59905   6.888   2.717   2.171
18353SOL    HW159906   6.802   2.686   2.213
18353SOL    HW259907   6.884   2.703   2.072
18354SOL     OW59908   7.345   3.609   3.016
18354SOL    HW159909   7.406   3.639   2.943
18354SOL    HW259910   7.307   3.520   2.994
18355SOL     OW59911   6.838   3.593   2.990
18355SOL    HW159912   6.922   3.598   2.936
18355SOL    HW259913   6.815   3.497   3.008
18356SOL     OW59914   5.669   3.120   2.884
18356SOL    HW159915   5.664   3.119   2.984
18356SOL    HW259916   5.586   3.079   2.846
18357SOL     OW59917   6.274   3.524   3.578
18357SOL    HW159918   6.218   3.605   3.587
18357SOL    HW259919   6.326   3.528   3.492
18358SOL     OW59920   7.312   1.997   2.385
18358SOL    HW159921   7.385   1.980   2.318
18358SOL    HW259922   7.281   1.910   2.423
18359SOL     OW59923   6.974   3.435   2.339
18359SOL    HW159924   7.041   3.447   2.265
18359SOL    HW259925   6.934   3.524   2.362
18360SOL     OW59926   5.716   3.656   3.713
18360SOL    HW159927   5.675   3.582   3.766
18360SOL    HW259928   5.780   3.707   3.771
18361SOL     OW59929   6.866   2.789   2.534
18361SOL    HW159930   6.926   2.708   2.536
18361SOL    HW259931   6.906   2.858   2.474
18362SOL     OW59932   6.416   3.135   3.284
18362SOL    HW159933   6.411   3.168   3.379
18362SOL    HW259934   6.330   3.154   3.238
18363SOL     OW59935   6.258   3.478   2.016
18363SOL    HW159936   6.267   3.488   1.917
18363SOL    HW259937   6.218   3.389   2.037
18364SOL     OW59938   7.236   3.582   3.256
18364SOL    HW159939   7.289   3.592   3.172
18364SOL    HW259940   7.209   3.672   3.290
18365SOL     OW59941   7.427   2.037   2.825
18365SOL    HW159942   7.466   1.952   2.789
18365SOL    HW259943   7.329   2.039   2.806
18366SOL     OW59944   5.849   2.188   2.582
18366SOL    HW159945   5.770   2.239   2.548
18366SOL    HW259946   5.840   2.173   2.680
18367SOL     OW59947   6.780   3.474   1.893
18367SOL    HW159948   6.786   3.381   1.930
18367SOL    HW259949   6.721   3.474   1.813
18368SOL     OW59950   6.408   2.864   3.234
18368SOL    HW159951   6.448   2.863   3.142
18368SOL    HW259952   6.418   2.956   3.274
18369SOL     OW59953   6.502   2.772   2.153
18369SOL    HW159954   6.565   2.810   2.085
18369SOL    HW259955   6.542   2.689   2.192
18370SOL     OW59956   7.090   3.469   1.906
18370SOL    HW159957   6.998   3.506   1.913
18370SOL    HW259958   7.128   3.489   1.816
18371SOL     OW59959   5.958   3.150   3.352
18371SOL    HW159960   5.945   3.243   3.318
18371SOL    HW259961   5.874   3.098   3.339
18372SOL     OW59962   7.200   3.154   3.151
18372SOL    HW159963   7.260   3.157   3.231
18372SOL    HW259964   7.125   3.218   3.164
18373SOL     OW59965   6.625   2.960   2.558
18373SOL    HW159966   6.555   2.913   2.612
18373SOL    HW259967   6.684   2.892   2.515
18374SOL     OW59968   6.600   2.098   2.833
18374SOL    HW159969   6.592   2.062   2.740
18374SOL    HW259970   6.598   2.022   2.898
18375SOL     OW59971   6.176   3.349   2.353
18375SOL    HW159972   6.218   3.291   2.283
18375SOL    HW259973   6.132   3.428   2.309
18376SOL     OW59974   7.295   2.247   3.243
18376SOL    HW159975   7.368   2.316   3.247
18376SOL    HW259976   7.323   2.172   3.184
18377SOL     OW59977   5.841   3.210   2.152
18377SOL    HW159978   5.745   3.211   2.125
18377SOL    HW259979   5.853   3.263   2.236
18378SOL     OW59980   5.691   2.875   3.588
18378SOL    HW159981   5.614   2.842   3.642
18378SOL    HW259982   5.776   2.845   3.630
18379SOL     OW59983   6.258   2.065   3.351
18379SOL    HW159984   6.348   2.049   3.311
18379SOL    HW259985   6.266   2.070   3.450
18380SOL     OW59986   5.661   2.207   1.895
18380SOL    HW159987   5.569   2.179   1.866
18380SOL    HW259988   5.692   2.284   1.839
18381SOL     OW59989   7.026   2.718   3.260
18381SOL    HW159990   6.969   2.770   3.197
18381SOL    HW259991   7.122   2.730   3.236
18382SOL     OW59992   5.658   2.028   2.180
18382SOL    HW159993   5.641   2.111   2.126
18382SOL    HW259994   5.748   1.991   2.158
18383SOL     OW59995   6.769   3.197   1.981
18383SOL    HW159996   6.670   3.186   1.983
18383SOL    HW259997   6.803   3.212   2.074
18384SOL     OW59998   6.199   2.704   3.293
18384SOL    HW159999   6.255   2.785   3.276
18384SOL    HW260000   6.258   2.624   3.296
18385SOL     OW60001   7.079   3.629   2.821
18385SOL    HW160002   7.112   3.693   2.752
18385SOL    HW260003   7.145   3.623   2.896
18386SOL     OW60004   6.302   2.427   3.570
18386SOL    HW160005   6.321   2.492   3.644
18386SOL    HW260006   6.362   2.347   3.579
18387SOL     OW60007   7.036   3.082   3.495
18387SOL    HW160008   7.027   3.072   3.594
18387SOL    HW260009   7.132   3.075   3.469
18388SOL     OW60010   5.976   3.603   3.422
18388SOL    HW160011   5.885   3.644   3.420
18388SOL    HW260012   5.969   3.509   3.454
18389SOL     OW60013   7.260   2.745   3.116
18389SOL    HW160014   7.233   2.656   3.079
18389SOL    HW260015   7.261   2.813   3.043
18390SOL     OW60016   6.811   2.187   2.311
18390SOL    HW160017   6.876   2.113   2.300
18390SOL    HW260018   6.831   2.237   2.395
18391SOL     OW60019   6.180   2.607   2.514
18391SOL    HW160020   6.230   2.692   2.495
18391SOL    HW260021   6.092   2.609   2.466
18392SOL     OW60022   7.363   2.204   3.504
18392SOL    HW160023   7.346   2.235   3.410
18392SOL    HW260024   7.279   2.167   3.542
18393SOL     OW60025   7.316   2.796   3.379
18393SOL    HW160026   7.354   2.887   3.394
18393SOL    HW260027   7.308   2.779   3.280
18394SOL     OW60028   6.445   3.236   1.878
18394SOL    HW160029   6.399   3.251   1.966
18394SOL    HW260030   6.489   3.321   1.848
18395SOL     OW60031   6.247   3.652   2.815
18395SOL    HW160032   6.201   3.740   2.802
18395SOL    HW260033   6.346   3.664   2.808
18396SOL     OW60034   6.445   2.818   2.723
18396SOL    HW160035   6.499   2.749   2.771
18396SOL    HW260036   6.413   2.887   2.789
18397SOL     OW60037   6.669   2.846   1.949
18397SOL    HW160038   6.646   2.899   1.867
18397SOL    HW260039   6.750   2.790   1.930
18398SOL     OW60040   7.447   3.431   2.713
18398SOL    HW160041   7.376   3.419   2.643
18398SOL    HW260042   7.448   3.352   2.773
18399SOL     OW60043   5.807   3.176   3.706
18399SOL    HW160044   5.742   3.103   3.685
18399SOL    HW260045   5.811   3.190   3.804
18400SOL     OW60046   5.665   3.102   2.515
18400SOL    HW160047   5.664   3.055   2.603
18400SOL    HW260048   5.747   3.074   2.464
18401SOL     OW60049   6.258   3.253   3.486
18401SOL    HW160050   6.180   3.203   3.524
18401SOL    HW260051   6.255   3.348   3.517
18402SOL     OW60052   7.410   2.054   3.089
18402SOL    HW160053   7.406   1.964   3.133
18402SOL    HW260054   7.413   2.043   2.990
18403SOL     OW60055   6.014   2.286   2.382
18403SOL    HW160056   6.044   2.214   2.320
18403SOL    HW260057   5.975   2.246   2.465
18404SOL     OW60058   7.291   3.349   2.966
18404SOL    HW160059   7.198   3.324   2.939
18404SOL    HW260060   7.317   3.299   3.048
18405SOL     OW60061   5.903   2.409   3.142
18405SOL    HW160062   5.941   2.350   3.214
18405SOL    HW260063   5.943   2.383   3.054
18406SOL     OW60064   6.398   3.448   2.549
18406SOL    HW160065   6.430   3.458   2.455
18406SOL    HW260066   6.319   3.386   2.551
18407SOL     OW60067   7.010   2.076   2.974
18407SOL    HW160068   7.062   2.011   3.029
18407SOL    HW260069   6.961   2.139   3.035
18408SOL     OW60070   6.587   1.896   3.016
18408SOL    HW160071   6.524   1.824   2.985
18408SOL    HW260072   6.680   1.860   3.016
18409SOL     OW60073   6.356   3.192   2.163
18409SOL    HW160074   6.310   3.105   2.180
18409SOL    HW260075   6.447   3.189   2.204
18410SOL     OW60076   6.204   3.429   3.146
18410SOL    HW160077   6.199   3.511   3.203
18410SOL    HW260078   6.293   3.426   3.101
18411SOL     OW60079   6.938   1.914   2.030
18411SOL    HW160080   6.973   1.873   1.946
18411SOL    HW260081   6.848   1.876   2.050
18412SOL     OW60082   6.886   2.315   2.553
18412SOL    HW160083   6.827   2.395   2.557
18412SOL    HW260084   6.901   2.280   2.646
18413SOL     OW60085   7.179   2.083   2.744
18413SOL    HW160086   7.095   2.082   2.798
18413SOL    HW260087   7.181   2.166   2.688
18414SOL     OW60088   5.625   2.939   2.162
18414SOL    HW160089   5.724   2.928   2.153
18414SOL    HW260090   5.585   2.853   2.194
18415SOL     OW60091   6.461   3.508   2.199
18415SOL    HW160092   6.384   3.473   2.145
18415SOL    HW260093   6.429   3.579   2.261
18416SOL     OW60094   5.816   2.490   3.837
18416SOL    HW160095   5.723   2.488   3.874
18416SOL    HW260096   5.817   2.451   3.745
18417SOL     OW60097   5.811   2.137   4.720
18417SOL    HW160098   5.846   2.120   4.812
18417SOL    HW260099   5.723   2.092   4.708
18418SOL     OW60100   5.605   2.230   4.371
18418SOL    HW160101   5.523   2.273   4.410
18418SOL    HW260102   5.577   2.157   4.308
18419SOL     OW60103   6.155   3.137   4.889
18419SOL    HW160104   6.062   3.130   4.852
18419SOL    HW260105   6.166   3.226   4.933
18420SOL     OW60106   7.141   3.373   4.427
18420SOL    HW160107   7.084   3.357   4.508
18420SOL    HW260108   7.082   3.383   4.347
18421SOL     OW60109   6.721   2.565   4.441
18421SOL    HW160110   6.778   2.643   4.416
18421SOL    HW260111   6.661   2.591   4.517
18422SOL     OW60112   7.341   2.469   3.955
18422SOL    HW160113   7.329   2.456   3.856
18422SOL    HW260114   7.311   2.388   4.004
18423SOL     OW60115   6.354   3.006   4.747
18423SOL    HW160116   6.276   3.023   4.807
18423SOL    HW260117   6.388   3.093   4.711
18424SOL     OW60118   6.436   2.660   5.547
18424SOL    HW160119   6.432   2.736   5.612
18424SOL    HW260120   6.458   2.696   5.456
18425SOL     OW60121   6.271   2.874   4.389
18425SOL    HW160122   6.340   2.858   4.459
18425SOL    HW260123   6.198   2.931   4.427
18426SOL     OW60124   6.272   3.023   5.527
18426SOL    HW160125   6.332   3.102   5.541
18426SOL    HW260126   6.186   3.054   5.486
18427SOL     OW60127   5.921   3.297   4.785
18427SOL    HW160128   5.843   3.266   4.732
18427SOL    HW260129   5.979   3.355   4.728
18428SOL     OW60130   7.046   3.367   5.063
18428SOL    HW160131   7.070   3.461   5.089
18428SOL    HW260132   7.030   3.313   5.145
18429SOL     OW60133   6.024   2.254   5.223
18429SOL    HW160134   6.106   2.198   5.232
18429SOL    HW260135   5.943   2.196   5.227
18430SOL     OW60136   7.189   2.309   4.461
18430SOL    HW160137   7.115   2.355   4.411
18430SOL    HW260138   7.240   2.377   4.514
18431SOL     OW60139   5.817   3.575   4.207
18431SOL    HW160140   5.851   3.652   4.261
18431SOL    HW260141   5.861   3.575   4.117
18432SOL     OW60142   6.713   3.203   5.414
18432SOL    HW160143   6.760   3.203   5.502
18432SOL    HW260144   6.665   3.116   5.403
18433SOL     OW60145   5.816   3.296   4.262
18433SOL    HW160146   5.790   3.392   4.262
18433SOL    HW260147   5.745   3.242   4.307
18434SOL     OW60148   5.826   2.953   4.610
18434SOL    HW160149   5.840   2.869   4.662
18434SOL    HW260150   5.771   3.017   4.665
18435SOL     OW60151   6.206   3.648   5.163
18435SOL    HW160152   6.114   3.631   5.198
18435SOL    HW260153   6.234   3.740   5.189
18436SOL     OW60154   6.192   2.826   3.847
18436SOL    HW160155   6.199   2.910   3.793
18436SOL    HW260156   6.238   2.839   3.935
18437SOL     OW60157   7.180   1.976   5.204
18437SOL    HW160158   7.162   2.043   5.132
18437SOL    HW260159   7.177   2.022   5.293
18438SOL     OW60160   5.708   2.505   4.287
18438SOL    HW160161   5.663   2.417   4.304
18438SOL    HW260162   5.707   2.559   4.371
18439SOL     OW60163   7.428   3.629   4.083
18439SOL    HW160164   7.482   3.600   4.163
18439SOL    HW260165   7.458   3.719   4.054
18440SOL     OW60166   5.613   3.458   3.841
18440SOL    HW160167   5.594   3.362   3.862
18440SOL    HW260168   5.580   3.516   3.916
18441SOL     OW60169   7.275   2.784   4.336
18441SOL    HW160170   7.370   2.755   4.344
18441SOL    HW260171   7.267   2.849   4.261
18442SOL     OW60172   7.227   2.970   4.156
18442SOL    HW160173   7.313   2.972   4.104
18442SOL    HW260174   7.241   3.017   4.244
18443SOL     OW60175   5.699   2.599   5.321
18443SOL    HW160176   5.787   2.586   5.366
18443SOL    HW260177   5.686   2.696   5.299
18444SOL     OW60178   6.199   3.227   4.450
18444SOL    HW160179   6.150   3.140   4.459
18444SOL    HW260180   6.176   3.270   4.363
18445SOL     OW60181   6.879   3.090   5.147
18445SOL    HW160182   6.916   3.017   5.089
18445SOL    HW260183   6.931   3.095   5.232
18446SOL     OW60184   6.395   1.866   4.226
18446SOL    HW160185   6.435   1.957   4.217
18446SOL    HW260186   6.295   1.874   4.232
18447SOL     OW60187   5.783   2.838   4.988
18447SOL    HW160188   5.872   2.793   4.974
18447SOL    HW260189   5.710   2.773   4.969
18448SOL     OW60190   7.111   2.861   3.914
18448SOL    HW160191   7.048   2.785   3.927
18448SOL    HW260192   7.159   2.879   4.000
18449SOL     OW60193   6.773   3.654   5.340
18449SOL    HW160194   6.797   3.714   5.264
18449SOL    HW260195   6.780   3.559   5.310
18450SOL     OW60196   5.903   2.113   5.525
18450SOL    HW160197   5.974   2.184   5.531
18450SOL    HW260198   5.815   2.152   5.553
18451SOL     OW60199   7.052   3.279   4.677
18451SOL    HW160200   6.993   3.285   4.757
18451SOL    HW260201   7.037   3.191   4.631
18452SOL     OW60202   7.253   3.576   4.296
18452SOL    HW160203   7.212   3.553   4.208
18452SOL    HW260204   7.235   3.502   4.361
18453SOL     OW60205   6.184   2.591   3.994
18453SOL    HW160206   6.208   2.660   3.926
18453SOL    HW260207   6.106   2.624   4.048
18454SOL     OW60208   6.867   2.207   4.668
18454SOL    HW160209   6.781   2.157   4.655
18454SOL    HW260210   6.929   2.153   4.724
18455SOL     OW60211   7.162   3.524   4.031
18455SOL    HW160212   7.251   3.570   4.034
18455SOL    HW260213   7.141   3.500   3.936
18456SOL     OW60214   6.393   2.467   5.189
18456SOL    HW160215   6.346   2.464   5.278
18456SOL    HW260216   6.342   2.412   5.123
18457SOL     OW60217   6.980   2.331   5.398
18457SOL    HW160218   6.960   2.374   5.486
18457SOL    HW260219   7.058   2.269   5.407
18458SOL     OW60220   6.559   2.752   5.296
18458SOL    HW160221   6.605   2.668   5.267
18458SOL    HW260222   6.503   2.786   5.221
18459SOL     OW60223   6.577   2.272   4.966
18459SOL    HW160224   6.500   2.306   5.020
18459SOL    HW260225   6.543   2.221   4.887
18460SOL     OW60226   6.627   2.563   4.153
18460SOL    HW160227   6.653   2.559   4.249
18460SOL    HW260228   6.542   2.512   4.139
18461SOL     OW60229   5.662   2.673   4.513
18461SOL    HW160230   5.761   2.661   4.522
18461SOL    HW260231   5.638   2.768   4.534
18462SOL     OW60232   5.716   3.683   5.295
18462SOL    HW160233   5.706   3.668   5.394
18462SOL    HW260234   5.630   3.719   5.259
18463SOL     OW60235   6.451   2.210   3.919
18463SOL    HW160236   6.510   2.273   3.870
18463SOL    HW260237   6.470   2.116   3.890
18464SOL     OW60238   7.305   2.447   5.555
18464SOL    HW160239   7.279   2.536   5.519
18464SOL    HW260240   7.303   2.379   5.482
18465SOL     OW60241   6.948   3.006   4.269
18465SOL    HW160242   7.031   2.977   4.221
18465SOL    HW260243   6.899   3.073   4.213
18466SOL     OW60244   6.136   2.058   4.609
18466SOL    HW160245   6.131   2.053   4.709
18466SOL    HW260246   6.138   2.154   4.580
18467SOL     OW60247   6.594   3.318   4.201
18467SOL    HW160248   6.548   3.390   4.149
18467SOL    HW260249   6.590   3.338   4.299
18468SOL     OW60250   7.381   2.928   4.597
18468SOL    HW160251   7.319   2.913   4.521
18468SOL    HW260252   7.329   2.939   4.682
18469SOL     OW60253   6.813   3.412   5.230
18469SOL    HW160254   6.819   3.335   5.294
18469SOL    HW260255   6.761   3.386   5.150
18470SOL     OW60256   5.907   2.805   3.966
18470SOL    HW160257   5.989   2.844   3.924
18470SOL    HW260258   5.880   2.723   3.917
18471SOL     OW60259   7.044   2.597   4.452
18471SOL    HW160260   7.039   2.532   4.527
18471SOL    HW260261   7.124   2.656   4.465
18472SOL     OW60262   6.047   3.128   5.451
18472SOL    HW160263   5.997   3.129   5.365
18472SOL    HW260264   5.984   3.110   5.527
18473SOL     OW60265   6.697   3.638   3.961
18473SOL    HW160266   6.637   3.576   4.011
18473SOL    HW260267   6.728   3.594   3.876
18474SOL     OW60268   5.788   2.147   5.222
18474SOL    HW160269   5.708   2.207   5.209
18474SOL    HW260270   5.778   2.098   5.308
18475SOL     OW60271   7.218   3.239   3.805
18475SOL    HW160272   7.186   3.333   3.795
18475SOL    HW260273   7.142   3.176   3.793
18476SOL     OW60274   6.050   3.605   4.047
18476SOL    HW160275   6.083   3.644   4.133
18476SOL    HW260276   6.126   3.598   3.982
18477SOL     OW60277   6.986   1.969   4.150
18477SOL    HW160278   6.962   1.932   4.060
18477SOL    HW260279   7.085   1.985   4.154
18478SOL     OW60280   5.835   3.647   4.965
18478SOL    HW160281   5.892   3.582   5.015
18478SOL    HW260282   5.819   3.614   4.872
18479SOL     OW60283   6.526   3.560   4.628
18479SOL    HW160284   6.606   3.503   4.649
18479SOL    HW260285   6.477   3.520   4.551
18480SOL     OW60286   5.968   2.562   4.204
18480SOL    HW160287   6.013   2.472   4.201
18480SOL    HW260288   5.874   2.551   4.237
18481SOL     OW60289   7.133   2.084   5.453
18481SOL    HW160290   7.128   2.121   5.545
18481SOL    HW260291   7.061   2.015   5.441
18482SOL     OW60292   6.200   1.984   3.841
18482SOL    HW160293   6.298   1.962   3.848
18482SOL    HW260294   6.169   1.967   3.748
18483SOL     OW60295   6.367   2.126   5.473
18483SOL    HW160296   6.434   2.065   5.516
18483SOL    HW260297   6.294   2.145   5.538
18484SOL     OW60298   6.474   3.376   4.919
18484SOL    HW160299   6.451   3.351   4.825
18484SOL    HW260300   6.535   3.307   4.958
18485SOL     OW60301   6.937   2.452   5.157
18485SOL    HW160302   6.965   2.409   5.242
18485SOL    HW260303   6.962   2.548   5.158
18486SOL     OW60304   6.389   3.264   4.648
18486SOL    HW160305   6.479   3.278   4.606
18486SOL    HW260306   6.318   3.266   4.577
18487SOL     OW60307   6.508   2.365   4.623
18487SOL    HW160308   6.483   2.356   4.527
18487SOL    HW260309   6.556   2.283   4.654
18488SOL     OW60310   6.125   1.926   4.236
18488SOL    HW160311   6.044   1.927   4.294
18488SOL    HW260312   6.128   2.009   4.181
18489SOL     OW60313   7.020   3.050   3.765
18489SOL    HW160314   7.052   2.974   3.822
18489SOL    HW260315   6.928   3.077   3.795
18490SOL     OW60316   5.883   1.897   3.895
18490SOL    HW160317   5.932   1.981   3.874
18490SOL    HW260318   5.945   1.832   3.940
18491SOL     OW60319   6.521   2.098   4.204
18491SOL    HW160320   6.473   2.139   4.126
18491SOL    HW260321   6.620   2.096   4.185
18492SOL     OW60322   6.662   2.545   5.188
18492SOL    HW160323   6.582   2.484   5.191
18492SOL    HW260324   6.743   2.492   5.164
18493SOL     OW60325   6.813   3.432   4.517
18493SOL    HW160326   6.834   3.506   4.452
18493SOL    HW260327   6.881   3.432   4.590
18494SOL     OW60328   6.045   3.014   4.465
18494SOL    HW160329   5.974   2.987   4.530
18494SOL    HW260330   6.019   2.986   4.372
18495SOL     OW60331   6.857   3.659   4.315
18495SOL    HW160332   6.901   3.723   4.251
18495SOL    HW260333   6.807   3.711   4.385
18496SOL     OW60334   6.618   2.411   3.740
18496SOL    HW160335   6.577   2.493   3.701
18496SOL    HW260336   6.682   2.437   3.813
18497SOL     OW60337   5.664   2.418   5.110
18497SOL    HW160338   5.756   2.417   5.069
18497SOL    HW260339   5.658   2.492   5.177
18498SOL     OW60340   6.147   2.084   4.871
18498SOL    HW160341   6.185   2.000   4.908
18498SOL    HW260342   6.059   2.103   4.915
18499SOL     OW60343   6.452   2.316   4.366
18499SOL    HW160344   6.420   2.388   4.304
18499SOL    HW260345   6.476   2.235   4.313
18500SOL     OW60346   6.603   1.901   4.477
18500SOL    HW160347   6.531   1.906   4.408
18500SOL    HW260348   6.579   1.832   4.546
18501SOL     OW60349   7.015   3.035   4.591
18501SOL    HW160350   6.960   2.951   4.584
18501SOL    HW260351   7.041   3.064   4.499
18502SOL     OW60352   7.052   2.452   4.716
18502SOL    HW160353   7.022   2.357   4.723
18502SOL    HW260354   7.125   2.468   4.782
18503SOL     OW60355   7.443   2.695   4.101
18503SOL    HW160356   7.485   2.631   4.165
18503SOL    HW260357   7.405   2.644   4.023
18504SOL     OW60358   6.074   3.247   3.898
18504SOL    HW160359   5.987   3.232   3.945
18504SOL    HW260360   6.057   3.273   3.803
18505SOL     OW60361   7.250   3.142   4.381
18505SOL    HW160362   7.349   3.150   4.395
18505SOL    HW260363   7.205   3.226   4.412
18506SOL     OW60364   6.976   2.437   3.802
18506SOL    HW160365   6.922   2.416   3.883
18506SOL    HW260366   7.067   2.396   3.811
18507SOL     OW60367   6.113   2.118   4.052
18507SOL    HW160368   6.140   2.059   3.977
18507SOL    HW260369   6.113   2.213   4.021
18508SOL     OW60370   7.340   3.085   5.312
18508SOL    HW160371   7.431   3.046   5.299
18508SOL    HW260372   7.348   3.181   5.336
18509SOL     OW60373   6.650   3.209   5.064
18509SOL    HW160374   6.570   3.186   5.119
18509SOL    HW260375   6.733   3.183   5.113
18510SOL     OW60376   7.178   3.491   5.349
18510SOL    HW160377   7.205   3.525   5.259
18510SOL    HW260378   7.257   3.453   5.395
18511SOL     OW60379   6.697   3.057   4.824
18511SOL    HW160380   6.657   3.101   4.905
18511SOL    HW260381   6.656   3.094   4.741
18512SOL     OW60382   7.224   2.961   4.803
18512SOL    HW160383   7.229   3.042   4.862
18512SOL    HW260384   7.138   2.963   4.752
18513SOL     OW60385   6.501   1.951   5.126
18513SOL    HW160386   6.526   1.931   5.031
18513SOL    HW260387   6.573   2.007   5.168
18514SOL     OW60388   6.291   2.912   4.092
18514SOL    HW160389   6.277   2.919   4.191
18514SOL    HW260390   6.375   2.861   4.074
18515SOL     OW60391   5.996   2.675   4.975
18515SOL    HW160392   6.082   2.687   5.025
18515SOL    HW260393   5.954   2.588   5.002
18516SOL     OW60394   6.860   2.248   4.986
18516SOL    HW160395   6.881   2.322   5.050
18516SOL    HW260396   6.771   2.265   4.943
18517SOL     OW60397   5.650   3.426   5.055
18517SOL    HW160398   5.604   3.508   5.021
18517SOL    HW260399   5.748   3.445   5.064
18518SOL     OW60400   5.953   2.962   4.225
18518SOL    HW160401   5.946   3.045   4.169
18518SOL    HW260402   5.957   2.882   4.165
18519SOL     OW60403   6.152   2.399   4.589
18519SOL    HW160404   6.164   2.465   4.515
18519SOL    HW260405   6.198   2.433   4.672
18520SOL     OW60406   6.838   3.210   4.112
18520SOL    HW160407   6.888   3.287   4.152
18520SOL    HW260408   6.743   3.212   4.144
18521SOL     OW60409   6.858   3.307   4.866
18521SOL    HW160410   6.905   3.320   4.953
18521SOL    HW260411   6.792   3.233   4.875
18522SOL     OW60412   7.168   2.501   4.196
18522SOL    HW160413   7.137   2.562   4.269
18522SOL    HW260414   7.218   2.553   4.127
18523SOL     OW60415   5.940   3.372   5.053
18523SOL    HW160416   5.919   3.328   4.966
18523SOL    HW260417   6.037   3.398   5.056
18524SOL     OW60418   5.988   2.613   5.322
18524SOL    HW160419   6.056   2.668   5.275
18524SOL    HW260420   6.028   2.525   5.349
18525SOL     OW60421   7.173   2.641   5.394
18525SOL    HW160422   7.081   2.679   5.389
18525SOL    HW260423   7.233   2.688   5.329
18526SOL     OW60424   6.599   1.967   5.494
18526SOL    HW160425   6.605   2.052   5.442
18526SOL    HW260426   6.631   1.891   5.437
18527SOL     OW60427   6.090   1.912   5.464
18527SOL    HW160428   6.048   1.855   5.394
18527SOL    HW260429   6.024   1.981   5.496
18528SOL     OW60430   6.159   2.732   4.753
18528SOL    HW160431   6.203   2.821   4.744
18528SOL    HW260432   6.096   2.732   4.830
18529SOL     OW60433   6.946   2.724   4.769
18529SOL    HW160434   6.871   2.724   4.703
18529SOL    HW260435   6.983   2.632   4.778
18530SOL     OW60436   6.795   2.387   3.999
18530SOL    HW160437   6.808   2.303   4.053
18530SOL    HW260438   6.766   2.461   4.059
18531SOL     OW60439   5.893   2.075   4.955
18531SOL    HW160440   5.870   2.112   5.045
18531SOL    HW260441   5.863   1.980   4.949
18532SOL     OW60442   5.623   3.172   5.006
18532SOL    HW160443   5.676   3.123   5.074
18532SOL    HW260444   5.645   3.270   5.011
18533SOL     OW60445   6.318   2.496   4.788
18533SOL    HW160446   6.377   2.470   4.712
18533SOL    HW260447   6.290   2.592   4.777
18534SOL     OW60448   7.314   2.797   5.578
18534SOL    HW160449   7.268   2.790   5.489
18534SOL    HW260450   7.252   2.841   5.644
18535SOL     OW60451   5.893   1.925   4.342
18535SOL    HW160452   5.882   2.019   4.375
18535SOL    HW260453   5.888   1.862   4.419
18536SOL     OW60454   7.208   2.229   4.098
18536SOL    HW160455   7.210   2.153   4.162
18536SOL    HW260456   7.160   2.306   4.138
18537SOL     OW60457   6.566   3.435   5.424
18537SOL    HW160458   6.546   3.479   5.336
18537SOL    HW260459   6.605   3.344   5.408
18538SOL     OW60460   7.445   3.380   5.329
18538SOL    HW160461   7.459   3.407   5.234
18538SOL    HW260462   7.528   3.402   5.382
18539SOL     OW60463   5.936   2.760   5.528
18539SOL    HW160464   6.012   2.804   5.576
18539SOL    HW260465   5.971   2.713   5.446
18540SOL     OW60466   7.126   2.136   3.849
18540SOL    HW160467   7.065   2.061   3.872
18540SOL    HW260468   7.148   2.188   3.932
18541SOL     OW60469   6.889   2.700   3.766
18541SOL    HW160470   6.923   2.607   3.781
18541SOL    HW260471   6.907   2.727   3.671
18542SOL     OW60472   6.654   3.195   4.573
18542SOL    HW160473   6.661   3.111   4.518
18542SOL    HW260474   6.716   3.264   4.537
18543SOL     OW60475   5.905   2.672   4.673
18543SOL    HW160476   5.998   2.708   4.678
18543SOL    HW260477   5.899   2.587   4.725
18544SOL     OW60478   5.925   2.371   4.730
18544SOL    HW160479   5.873   2.288   4.713
18544SOL    HW260480   6.002   2.376   4.666
18545SOL     OW60481   6.724   2.242   5.402
18545SOL    HW160482   6.679   2.305   5.466
18545SOL    HW260483   6.817   2.273   5.385
18546SOL     OW60484   6.746   2.069   5.201
18546SOL    HW160485   6.746   2.133   5.278
18546SOL    HW260486   6.774   2.117   5.118
18547SOL     OW60487   5.594   3.188   3.924
18547SOL    HW160488   5.501   3.209   3.893
18547SOL    HW260489   5.604   3.089   3.937
18548SOL     OW60490   5.674   3.663   4.651
18548SOL    HW160491   5.632   3.577   4.624
18548SOL    HW260492   5.768   3.666   4.617
18549SOL     OW60493   6.090   3.430   4.634
18549SOL    HW160494   6.156   3.504   4.643
18549SOL    HW260495   6.134   3.351   4.592
18550SOL     OW60496   6.588   2.658   4.962
18550SOL    HW160497   6.629   2.626   5.048
18550SOL    HW260498   6.492   2.631   4.959
18551SOL     OW60499   5.626   2.406   4.838
18551SOL    HW160500   5.711   2.373   4.797
18551SOL    HW260501   5.639   2.421   4.936
18552SOL     OW60502   5.775   2.382   5.446
18552SOL    HW160503   5.834   2.342   5.376
18552SOL    HW260504   5.717   2.453   5.405
18553SOL     OW60505   6.955   2.812   5.384
18553SOL    HW160506   6.994   2.901   5.404
18553SOL    HW260507   6.965   2.792   5.287
18554SOL     OW60508   6.401   2.434   4.049
18554SOL    HW160509   6.408   2.345   4.003
18554SOL    HW260510   6.307   2.468   4.041
18555SOL     OW60511   7.243   2.466   4.930
18555SOL    HW160512   7.205   2.397   4.992
18555SOL    HW260513   7.325   2.430   4.886
18556SOL     OW60514   5.838   3.426   5.468
18556SOL    HW160515   5.808   3.483   5.544
18556SOL    HW260516   5.831   3.329   5.494
18557SOL     OW60517   6.257   2.326   4.993
18557SOL    HW160518   6.223   2.237   4.963
18557SOL    HW260519   6.283   2.380   4.913
18558SOL     OW60520   6.516   3.540   5.189
18558SOL    HW160521   6.492   3.522   5.094
18558SOL    HW260522   6.546   3.634   5.199
18559SOL     OW60523   6.059   2.362   3.915
18559SOL    HW160524   6.120   2.442   3.919
18559SOL    HW260525   5.964   2.393   3.922
18560SOL     OW60526   5.745   2.999   5.190
18560SOL    HW160527   5.767   2.938   5.266
18560SOL    HW260528   5.755   2.950   5.104
18561SOL     OW60529   6.933   2.921   4.958
18561SOL    HW160530   6.957   2.858   4.884
18561SOL    HW260531   6.843   2.961   4.940
18562SOL     OW60532   6.888   2.717   4.033
18562SOL    HW160533   6.802   2.686   4.075
18562SOL    HW260534   6.884   2.703   3.934
18563SOL     OW60535   7.345   3.609   4.878
18563SOL    HW160536   7.406   3.639   4.805
18563SOL    HW260537   7.307   3.520   4.856
18564SOL     OW60538   6.838   3.593   4.852
18564SOL    HW160539   6.922   3.598   4.798
18564SOL    HW260540   6.815   3.497   4.870
18565SOL     OW60541   5.669   3.120   4.746
18565SOL    HW160542   5.664   3.119   4.846
18565SOL    HW260543   5.586   3.079   4.708
18566SOL     OW60544   6.274   3.524   5.440
18566SOL    HW160545   6.218   3.605   5.449
18566SOL    HW260546   6.326   3.528   5.354
18567SOL     OW60547   7.312   1.997   4.247
18567SOL    HW160548   7.385   1.980   4.180
18567SOL    HW260549   7.281   1.910   4.285
18568SOL     OW60550   6.974   3.435   4.201
18568SOL    HW160551   7.041   3.447   4.127
18568SOL    HW260552   6.934   3.524   4.224
18569SOL     OW60553   5.716   3.656   5.575
18569SOL    HW160554   5.675   3.582   5.628
18569SOL    HW260555   5.780   3.707   5.633
18570SOL     OW60556   6.866   2.789   4.396
18570SOL    HW160557   6.926   2.708   4.398
18570SOL    HW260558   6.906   2.858   4.336
18571SOL     OW60559   6.416   3.135   5.146
18571SOL    HW160560   6.411   3.168   5.241
18571SOL    HW260561   6.330   3.154   5.100
18572SOL     OW60562   6.258   3.478   3.878
18572SOL    HW160563   6.267   3.488   3.779
18572SOL    HW260564   6.218   3.389   3.899
18573SOL     OW60565   7.236   3.582   5.118
18573SOL    HW160566   7.289   3.592   5.034
18573SOL    HW260567   7.209   3.672   5.152
18574SOL     OW60568   7.427   2.037   4.687
18574SOL    HW160569   7.466   1.952   4.651
18574SOL    HW260570   7.329   2.039   4.668
18575SOL     OW60571   5.849   2.188   4.444
18575SOL    HW160572   5.770   2.239   4.410
18575SOL    HW260573   5.840   2.173   4.542
18576SOL     OW60574   6.780   3.474   3.755
18576SOL    HW160575   6.786   3.381   3.792
18576SOL    HW260576   6.721   3.474   3.675
18577SOL     OW60577   6.408   2.864   5.096
18577SOL    HW160578   6.448   2.863   5.004
18577SOL    HW260579   6.418   2.956   5.136
18578SOL     OW60580   7.090   3.469   3.768
18578SOL    HW160581   6.998   3.506   3.775
18578SOL    HW260582   7.128   3.489   3.678
18579SOL     OW60583   5.958   3.150   5.214
18579SOL    HW160584   5.945   3.243   5.180
18579SOL    HW260585   5.874   3.098   5.201
18580SOL     OW60586   7.200   3.154   5.013
18580SOL    HW160587   7.260   3.157   5.093
18580SOL    HW260588   7.125   3.218   5.026
18581SOL     OW60589   6.625   2.960   4.420
18581SOL    HW160590   6.555   2.913   4.474
18581SOL    HW260591   6.684   2.892   4.377
18582SOL     OW60592   6.600   2.098   4.695
18582SOL    HW160593   6.592   2.062   4.602
18582SOL    HW260594   6.598   2.022   4.760
18583SOL     OW60595   6.176   3.349   4.215
18583SOL    HW160596   6.218   3.291   4.145
18583SOL    HW260597   6.132   3.428   4.171
18584SOL     OW60598   7.295   2.247   5.105
18584SOL    HW160599   7.368   2.316   5.109
18584SOL    HW260600   7.323   2.172   5.046
18585SOL     OW60601   5.841   3.210   4.014
18585SOL    HW160602   5.745   3.211   3.987
18585SOL    HW260603   5.853   3.263   4.098
18586SOL     OW60604   5.691   2.875   5.450
18586SOL    HW160605   5.614   2.842   5.504
18586SOL    HW260606   5.776   2.845   5.492
18587SOL     OW60607   6.258   2.065   5.213
18587SOL    HW160608   6.348   2.049   5.173
18587SOL    HW260609   6.266   2.070   5.312
18588SOL     OW60610   5.661   2.207   3.757
18588SOL    HW160611   5.569   2.179   3.728
18588SOL    HW260612   5.692   2.284   3.701
18589SOL     OW60613   7.026   2.718   5.122
18589SOL    HW160614   6.969   2.770   5.059
18589SOL    HW260615   7.122   2.730   5.098
18590SOL     OW60616   5.658   2.028   4.042
18590SOL    HW160617   5.641   2.111   3.988
18590SOL    HW260618   5.748   1.991   4.020
18591SOL     OW60619   6.769   3.197   3.843
18591SOL    HW160620   6.670   3.186   3.845
18591SOL    HW260621   6.803   3.212   3.936
18592SOL     OW60622   6.199   2.704   5.155
18592SOL    HW160623   6.255   2.785   5.138
18592SOL    HW260624   6.258   2.624   5.158
18593SOL     OW60625   7.079   3.629   4.683
18593SOL    HW160626   7.112   3.693   4.614
18593SOL    HW260627   7.145   3.623   4.758
18594SOL     OW60628   6.302   2.427   5.432
18594SOL    HW160629   6.321   2.492   5.506
18594SOL    HW260630   6.362   2.347   5.441
18595SOL     OW60631   7.036   3.082   5.357
18595SOL    HW160632   7.027   3.072   5.456
18595SOL    HW260633   7.132   3.075   5.331
18596SOL     OW60634   5.976   3.603   5.284
18596SOL    HW160635   5.885   3.644   5.282
18596SOL    HW260636   5.969   3.509   5.316
18597SOL     OW60637   7.260   2.745   4.978
18597SOL    HW160638   7.233   2.656   4.941
18597SOL    HW260639   7.261   2.813   4.905
18598SOL     OW60640   6.811   2.187   4.173
18598SOL    HW160641   6.876   2.113   4.162
18598SOL    HW260642   6.831   2.237   4.257
18599SOL     OW60643   6.180   2.607   4.376
18599SOL    HW160644   6.230   2.692   4.357
18599SOL    HW260645   6.092   2.609   4.328
18600SOL     OW60646   7.363   2.204   5.366
18600SOL    HW160647   7.346   2.235   5.272
18600SOL    HW260648   7.279   2.167   5.404
18601SOL     OW60649   7.316   2.796   5.241
18601SOL    HW160650   7.354   2.887   5.256
18601SOL    HW260651   7.308   2.779   5.142
18602SOL     OW60652   6.445   3.236   3.740
18602SOL    HW160653   6.399   3.251   3.828
18602SOL    HW260654   6.489   3.321   3.710
18603SOL     OW60655   6.247   3.652   4.677
18603SOL    HW160656   6.201   3.740   4.664
18603SOL    HW260657   6.346   3.664   4.670
18604SOL     OW60658   6.445   2.818   4.585
18604SOL    HW160659   6.499   2.749   4.633
18604SOL    HW260660   6.413   2.887   4.651
18605SOL     OW60661   6.669   2.846   3.811
18605SOL    HW160662   6.646   2.899   3.729
18605SOL    HW260663   6.750   2.790   3.792
18606SOL     OW60664   7.447   3.431   4.575
18606SOL    HW160665   7.376   3.419   4.505
18606SOL    HW260666   7.448   3.352   4.635
18607SOL     OW60667   5.807   3.176   5.568
18607SOL    HW160668   5.742   3.103   5.547
18607SOL    HW260669   5.811   3.190   5.666
18608SOL     OW60670   5.665   3.102   4.377
18608SOL    HW160671   5.664   3.055   4.465
18608SOL    HW260672   5.747   3.074   4.326
18609SOL     OW60673   6.258   3.253   5.348
18609SOL    HW160674   6.180   3.203   5.386
18609SOL    HW260675   6.255   3.348   5.379
18610SOL     OW60676   7.410   2.054   4.951
18610SOL    HW160677   7.406   1.964   4.995
18610SOL    HW260678   7.413   2.043   4.852
18611SOL     OW60679   6.014   2.286   4.244
18611SOL    HW160680   6.044   2.214   4.182
18611SOL    HW260681   5.975   2.246   4.327
18612SOL     OW60682   7.291   3.349   4.828
18612SOL    HW160683   7.198   3.324   4.801
18612SOL    HW260684   7.317   3.299   4.910
18613SOL     OW60685   5.903   2.409   5.004
18613SOL    HW160686   5.941   2.350   5.076
18613SOL    HW260687   5.943   2.383   4.916
18614SOL     OW60688   6.398   3.448   4.411
18614SOL    HW160689   6.430   3.458   4.317
18614SOL    HW260690   6.319   3.386   4.413
18615SOL     OW60691   7.010   2.076   4.836
18615SOL    HW160692   7.062   2.011   4.891
18615SOL    HW260693   6.961   2.139   4.897
18616SOL     OW60694   6.587   1.896   4.878
18616SOL    HW160695   6.524   1.824   4.847
18616SOL    HW260696   6.680   1.860   4.878
18617SOL     OW60697   6.356   3.192   4.025
18617SOL    HW160698   6.310   3.105   4.042
18617SOL    HW260699   6.447   3.189   4.066
18618SOL     OW60700   6.204   3.429   5.008
18618SOL    HW160701   6.199   3.511   5.065
18618SOL    HW260702   6.293   3.426   4.963
18619SOL     OW60703   6.938   1.914   3.892
18619SOL    HW160704   6.973   1.873   3.808
18619SOL    HW260705   6.848   1.876   3.912
18620SOL     OW60706   6.886   2.315   4.415
18620SOL    HW160707   6.827   2.395   4.419
18620SOL    HW260708   6.901   2.280   4.508
18621SOL     OW60709   7.179   2.083   4.606
18621SOL    HW160710   7.095   2.082   4.660
18621SOL    HW260711   7.181   2.166   4.550
18622SOL     OW60712   5.625   2.939   4.024
18622SOL    HW160713   5.724   2.928   4.015
18622SOL    HW260714   5.585   2.853   4.056
18623SOL     OW60715   6.461   3.508   4.061
18623SOL    HW160716   6.384   3.473   4.007
18623SOL    HW260717   6.429   3.579   4.123
18624SOL     OW60718   5.816   2.490   5.699
18624SOL    HW160719   5.723   2.488   5.736
18624SOL    HW260720   5.817   2.451   5.607
18625SOL     OW60721   5.811   2.137   6.582
18625SOL    HW160722   5.846   2.120   6.674
18625SOL    HW260723   5.723   2.092   6.570
18626SOL     OW60724   5.605   2.230   6.233
18626SOL    HW160725   5.523   2.273   6.272
18626SOL    HW260726   5.577   2.157   6.170
18627SOL     OW60727   6.155   3.137   6.751
18627SOL    HW160728   6.062   3.130   6.714
18627SOL    HW260729   6.166   3.226   6.795
18628SOL     OW60730   7.141   3.373   6.289
18628SOL    HW160731   7.084   3.357   6.370
18628SOL    HW260732   7.082   3.383   6.209
18629SOL     OW60733   6.721   2.565   6.303
18629SOL    HW160734   6.778   2.643   6.278
18629SOL    HW260735   6.661   2.591   6.379
18630SOL     OW60736   7.341   2.469   5.817
18630SOL    HW160737   7.329   2.456   5.718
18630SOL    HW260738   7.311   2.388   5.866
18631SOL     OW60739   6.354   3.006   6.609
18631SOL    HW160740   6.276   3.023   6.669
18631SOL    HW260741   6.388   3.093   6.573
18632SOL     OW60742   6.436   2.660   7.409
18632SOL    HW160743   6.432   2.736   7.474
18632SOL    HW260744   6.458   2.696   7.318
18633SOL     OW60745   6.271   2.874   6.251
18633SOL    HW160746   6.340   2.858   6.321
18633SOL    HW260747   6.198   2.931   6.289
18634SOL     OW60748   6.272   3.023   7.389
18634SOL    HW160749   6.332   3.102   7.403
18634SOL    HW260750   6.186   3.054   7.348
18635SOL     OW60751   5.921   3.297   6.647
18635SOL    HW160752   5.843   3.266   6.594
18635SOL    HW260753   5.979   3.355   6.590
18636SOL     OW60754   7.046   3.367   6.925
18636SOL    HW160755   7.070   3.461   6.951
18636SOL    HW260756   7.030   3.313   7.007
18637SOL     OW60757   6.024   2.254   7.085
18637SOL    HW160758   6.106   2.198   7.094
18637SOL    HW260759   5.943   2.196   7.089
18638SOL     OW60760   7.189   2.309   6.323
18638SOL    HW160761   7.115   2.355   6.273
18638SOL    HW260762   7.240   2.377   6.376
18639SOL     OW60763   5.817   3.575   6.069
18639SOL    HW160764   5.851   3.652   6.123
18639SOL    HW260765   5.861   3.575   5.979
18640SOL     OW60766   6.713   3.203   7.276
18640SOL    HW160767   6.760   3.203   7.364
18640SOL    HW260768   6.665   3.116   7.265
18641SOL     OW60769   5.816   3.296   6.124
18641SOL    HW160770   5.790   3.392   6.124
18641SOL    HW260771   5.745   3.242   6.169
18642SOL     OW60772   5.826   2.953   6.472
18642SOL    HW160773   5.840   2.869   6.524
18642SOL    HW260774   5.771   3.017   6.527
18643SOL     OW60775   6.206   3.648   7.025
18643SOL    HW160776   6.114   3.631   7.060
18643SOL    HW260777   6.234   3.740   7.051
18644SOL     OW60778   6.192   2.826   5.709
18644SOL    HW160779   6.199   2.910   5.655
18644SOL    HW260780   6.238   2.839   5.797
18645SOL     OW60781   7.180   1.976   7.066
18645SOL    HW160782   7.162   2.043   6.994
18645SOL    HW260783   7.177   2.022   7.155
18646SOL     OW60784   5.708   2.505   6.149
18646SOL    HW160785   5.663   2.417   6.166
18646SOL    HW260786   5.707   2.559   6.233
18647SOL     OW60787   7.428   3.629   5.945
18647SOL    HW160788   7.482   3.600   6.025
18647SOL    HW260789   7.458   3.719   5.916
18648SOL     OW60790   5.613   3.458   5.703
18648SOL    HW160791   5.594   3.362   5.724
18648SOL    HW260792   5.580   3.516   5.778
18649SOL     OW60793   7.275   2.784   6.198
18649SOL    HW160794   7.370   2.755   6.206
18649SOL    HW260795   7.267   2.849   6.123
18650SOL     OW60796   7.227   2.970   6.018
18650SOL    HW160797   7.313   2.972   5.966
18650SOL    HW260798   7.241   3.017   6.106
18651SOL     OW60799   5.699   2.599   7.183
18651SOL    HW160800   5.787   2.586   7.228
18651SOL    HW260801   5.686   2.696   7.161
18652SOL     OW60802   6.199   3.227   6.312
18652SOL    HW160803   6.150   3.140   6.321
18652SOL    HW260804   6.176   3.270   6.225
18653SOL     OW60805   6.879   3.090   7.009
18653SOL    HW160806   6.916   3.017   6.951
18653SOL    HW260807   6.931   3.095   7.094
18654SOL     OW60808   6.395   1.866   6.088
18654SOL    HW160809   6.435   1.957   6.079
18654SOL    HW260810   6.295   1.874   6.094
18655SOL     OW60811   5.783   2.838   6.850
18655SOL    HW160812   5.872   2.793   6.836
18655SOL    HW260813   5.710   2.773   6.831
18656SOL     OW60814   7.111   2.861   5.776
18656SOL    HW160815   7.048   2.785   5.789
18656SOL    HW260816   7.159   2.879   5.862
18657SOL     OW60817   6.773   3.654   7.202
18657SOL    HW160818   6.797   3.714   7.126
18657SOL    HW260819   6.780   3.559   7.172
18658SOL     OW60820   5.903   2.113   7.387
18658SOL    HW160821   5.974   2.184   7.393
18658SOL    HW260822   5.815   2.152   7.415
18659SOL     OW60823   7.052   3.279   6.539
18659SOL    HW160824   6.993   3.285   6.619
18659SOL    HW260825   7.037   3.191   6.493
18660SOL     OW60826   7.253   3.576   6.158
18660SOL    HW160827   7.212   3.553   6.070
18660SOL    HW260828   7.235   3.502   6.223
18661SOL     OW60829   6.184   2.591   5.856
18661SOL    HW160830   6.208   2.660   5.788
18661SOL    HW260831   6.106   2.624   5.910
18662SOL     OW60832   6.867   2.207   6.530
18662SOL    HW160833   6.781   2.157   6.517
18662SOL    HW260834   6.929   2.153   6.586
18663SOL     OW60835   7.162   3.524   5.893
18663SOL    HW160836   7.251   3.570   5.896
18663SOL    HW260837   7.141   3.500   5.798
18664SOL     OW60838   6.393   2.467   7.051
18664SOL    HW160839   6.346   2.464   7.140
18664SOL    HW260840   6.342   2.412   6.985
18665SOL     OW60841   6.980   2.331   7.260
18665SOL    HW160842   6.960   2.374   7.348
18665SOL    HW260843   7.058   2.269   7.269
18666SOL     OW60844   6.559   2.752   7.158
18666SOL    HW160845   6.605   2.668   7.129
18666SOL    HW260846   6.503   2.786   7.083
18667SOL     OW60847   6.577   2.272   6.828
18667SOL    HW160848   6.500   2.306   6.882
18667SOL    HW260849   6.543   2.221   6.749
18668SOL     OW60850   6.627   2.563   6.015
18668SOL    HW160851   6.653   2.559   6.111
18668SOL    HW260852   6.542   2.512   6.001
18669SOL     OW60853   5.662   2.673   6.375
18669SOL    HW160854   5.761   2.661   6.384
18669SOL    HW260855   5.638   2.768   6.396
18670SOL     OW60856   5.716   3.683   7.157
18670SOL    HW160857   5.706   3.668   7.256
18670SOL    HW260858   5.630   3.719   7.121
18671SOL     OW60859   6.451   2.210   5.781
18671SOL    HW160860   6.510   2.273   5.732
18671SOL    HW260861   6.470   2.116   5.752
18672SOL     OW60862   7.305   2.447   7.417
18672SOL    HW160863   7.279   2.536   7.381
18672SOL    HW260864   7.303   2.379   7.344
18673SOL     OW60865   6.948   3.006   6.131
18673SOL    HW160866   7.031   2.977   6.083
18673SOL    HW260867   6.899   3.073   6.075
18674SOL     OW60868   6.136   2.058   6.471
18674SOL    HW160869   6.131   2.053   6.571
18674SOL    HW260870   6.138   2.154   6.442
18675SOL     OW60871   6.594   3.318   6.063
18675SOL    HW160872   6.548   3.390   6.011
18675SOL    HW260873   6.590   3.338   6.161
18676SOL     OW60874   5.937   3.663   6.439
18676SOL    HW160875   5.987   3.577   6.445
18676SOL    HW260876   6.002   3.740   6.436
18677SOL     OW60877   7.381   2.928   6.459
18677SOL    HW160878   7.319   2.913   6.383
18677SOL    HW260879   7.329   2.939   6.544
18678SOL     OW60880   6.813   3.412   7.092
18678SOL    HW160881   6.819   3.335   7.156
18678SOL    HW260882   6.761   3.386   7.012
18679SOL     OW60883   5.907   2.805   5.828
18679SOL    HW160884   5.989   2.844   5.786
18679SOL    HW260885   5.880   2.723   5.779
18680SOL     OW60886   7.044   2.597   6.314
18680SOL    HW160887   7.039   2.532   6.389
18680SOL    HW260888   7.124   2.656   6.327
18681SOL     OW60889   6.047   3.128   7.313
18681SOL    HW160890   5.997   3.129   7.227
18681SOL    HW260891   5.984   3.110   7.389
18682SOL     OW60892   6.697   3.638   5.823
18682SOL    HW160893   6.637   3.576   5.873
18682SOL    HW260894   6.728   3.594   5.738
18683SOL     OW60895   7.218   3.239   5.667
18683SOL    HW160896   7.186   3.333   5.657
18683SOL    HW260897   7.142   3.176   5.655
18684SOL     OW60898   6.050   3.605   5.909
18684SOL    HW160899   6.083   3.644   5.995
18684SOL    HW260900   6.126   3.598   5.844
18685SOL     OW60901   6.986   1.969   6.012
18685SOL    HW160902   6.962   1.932   5.922
18685SOL    HW260903   7.085   1.985   6.016
18686SOL     OW60904   5.835   3.647   6.827
18686SOL    HW160905   5.892   3.582   6.877
18686SOL    HW260906   5.819   3.614   6.734
18687SOL     OW60907   6.526   3.560   6.490
18687SOL    HW160908   6.606   3.503   6.511
18687SOL    HW260909   6.477   3.520   6.413
18688SOL     OW60910   5.968   2.562   6.066
18688SOL    HW160911   6.013   2.472   6.063
18688SOL    HW260912   5.874   2.551   6.099
18689SOL     OW60913   7.133   2.084   7.315
18689SOL    HW160914   7.128   2.121   7.407
18689SOL    HW260915   7.061   2.015   7.303
18690SOL     OW60916   6.200   1.984   5.703
18690SOL    HW160917   6.298   1.962   5.710
18690SOL    HW260918   6.169   1.967   5.610
18691SOL     OW60919   6.367   2.126   7.335
18691SOL    HW160920   6.434   2.065   7.378
18691SOL    HW260921   6.294   2.145   7.400
18692SOL     OW60922   6.474   3.376   6.781
18692SOL    HW160923   6.451   3.351   6.687
18692SOL    HW260924   6.535   3.307   6.820
18693SOL     OW60925   6.937   2.452   7.019
18693SOL    HW160926   6.965   2.409   7.104
18693SOL    HW260927   6.962   2.548   7.020
18694SOL     OW60928   6.389   3.264   6.510
18694SOL    HW160929   6.479   3.278   6.468
18694SOL    HW260930   6.318   3.266   6.439
18695SOL     OW60931   6.508   2.365   6.485
18695SOL    HW160932   6.483   2.356   6.389
18695SOL    HW260933   6.556   2.283   6.516
18696SOL     OW60934   6.125   1.926   6.098
18696SOL    HW160935   6.044   1.927   6.156
18696SOL    HW260936   6.128   2.009   6.043
18697SOL     OW60937   7.020   3.050   5.627
18697SOL    HW160938   7.052   2.974   5.684
18697SOL    HW260939   6.928   3.077   5.657
18698SOL     OW60940   5.883   1.897   5.757
18698SOL    HW160941   5.932   1.981   5.736
18698SOL    HW260942   5.945   1.832   5.802
18699SOL     OW60943   6.521   2.098   6.066
18699SOL    HW160944   6.473   2.139   5.988
18699SOL    HW260945   6.620   2.096   6.047
18700SOL     OW60946   6.662   2.545   7.050
18700SOL    HW160947   6.582   2.484   7.053
18700SOL    HW260948   6.743   2.492   7.026
18701SOL     OW60949   6.813   3.432   6.379
18701SOL    HW160950   6.834   3.506   6.314
18701SOL    HW260951   6.881   3.432   6.452
18702SOL     OW60952   6.045   3.014   6.327
18702SOL    HW160953   5.974   2.987   6.392
18702SOL    HW260954   6.019   2.986   6.234
18703SOL     OW60955   6.618   2.411   5.602
18703SOL    HW160956   6.577   2.493   5.563
18703SOL    HW260957   6.682   2.437   5.675
18704SOL     OW60958   5.664   2.418   6.972
18704SOL    HW160959   5.756   2.417   6.931
18704SOL    HW260960   5.658   2.492   7.039
18705SOL     OW60961   6.147   2.084   6.733
18705SOL    HW160962   6.185   2.000   6.770
18705SOL    HW260963   6.059   2.103   6.777
18706SOL     OW60964   6.452   2.316   6.228
18706SOL    HW160965   6.420   2.388   6.166
18706SOL    HW260966   6.476   2.235   6.175
18707SOL     OW60967   6.603   1.901   6.339
18707SOL    HW160968   6.531   1.906   6.270
18707SOL    HW260969   6.579   1.832   6.408
18708SOL     OW60970   7.015   3.035   6.453
18708SOL    HW160971   6.960   2.951   6.446
18708SOL    HW260972   7.041   3.064   6.361
18709SOL     OW60973   7.052   2.452   6.578
18709SOL    HW160974   7.022   2.357   6.585
18709SOL    HW260975   7.125   2.468   6.644
18710SOL     OW60976   7.443   2.695   5.963
18710SOL    HW160977   7.485   2.631   6.027
18710SOL    HW260978   7.405   2.644   5.885
18711SOL     OW60979   6.074   3.247   5.760
18711SOL    HW160980   5.987   3.232   5.807
18711SOL    HW260981   6.057   3.273   5.665
18712SOL     OW60982   7.250   3.142   6.243
18712SOL    HW160983   7.349   3.150   6.257
18712SOL    HW260984   7.205   3.226   6.274
18713SOL     OW60985   6.976   2.437   5.664
18713SOL    HW160986   6.922   2.416   5.745
18713SOL    HW260987   7.067   2.396   5.673
18714SOL     OW60988   6.113   2.118   5.914
18714SOL    HW160989   6.140   2.059   5.839
18714SOL    HW260990   6.113   2.213   5.883
18715SOL     OW60991   7.340   3.085   7.174
18715SOL    HW160992   7.431   3.046   7.161
18715SOL    HW260993   7.348   3.181   7.198
18716SOL     OW60994   6.650   3.209   6.926
18716SOL    HW160995   6.570   3.186   6.981
18716SOL    HW260996   6.733   3.183   6.975
18717SOL     OW60997   7.178   3.491   7.211
18717SOL    HW160998   7.205   3.525   7.121
18717SOL    HW260999   7.257   3.453   7.257
18718SOL     OW61000   6.697   3.057   6.686
18718SOL    HW161001   6.657   3.101   6.767
18718SOL    HW261002   6.656   3.094   6.603
18719SOL     OW61003   7.224   2.961   6.665
18719SOL    HW161004   7.229   3.042   6.724
18719SOL    HW261005   7.138   2.963   6.614
18720SOL     OW61006   6.501   1.951   6.988
18720SOL    HW161007   6.526   1.931   6.893
18720SOL    HW261008   6.573   2.007   7.030
18721SOL     OW61009   6.566   2.978   7.305
18721SOL    HW161010   6.467   2.984   7.315
18721SOL    HW261011   6.589   2.898   7.249
18722SOL     OW61012   6.291   2.912   5.954
18722SOL    HW161013   6.277   2.919   6.053
18722SOL    HW261014   6.375   2.861   5.936
18723SOL     OW61015   5.996   2.675   6.837
18723SOL    HW161016   6.082   2.687   6.887
18723SOL    HW261017   5.954   2.588   6.864
18724SOL     OW61018   6.860   2.248   6.848
18724SOL    HW161019   6.881   2.322   6.912
18724SOL    HW261020   6.771   2.265   6.805
18725SOL     OW61021   5.650   3.426   6.917
18725SOL    HW161022   5.604   3.508   6.883
18725SOL    HW261023   5.748   3.445   6.926
18726SOL     OW61024   5.953   2.962   6.087
18726SOL    HW161025   5.946   3.045   6.031
18726SOL    HW261026   5.957   2.882   6.027
18727SOL     OW61027   6.152   2.399   6.451
18727SOL    HW161028   6.164   2.465   6.377
18727SOL    HW261029   6.198   2.433   6.534
18728SOL     OW61030   6.838   3.210   5.974
18728SOL    HW161031   6.888   3.287   6.014
18728SOL    HW261032   6.743   3.212   6.006
18729SOL     OW61033   6.858   3.307   6.728
18729SOL    HW161034   6.905   3.320   6.815
18729SOL    HW261035   6.792   3.233   6.737
18730SOL     OW61036   7.168   2.501   6.058
18730SOL    HW161037   7.137   2.562   6.131
18730SOL    HW261038   7.218   2.553   5.989
18731SOL     OW61039   5.940   3.372   6.915
18731SOL    HW161040   5.919   3.328   6.828
18731SOL    HW261041   6.037   3.398   6.918
18732SOL     OW61042   5.988   2.613   7.184
18732SOL    HW161043   6.056   2.668   7.137
18732SOL    HW261044   6.028   2.525   7.211
18733SOL     OW61045   7.173   2.641   7.256
18733SOL    HW161046   7.081   2.679   7.251
18733SOL    HW261047   7.233   2.688   7.191
18734SOL     OW61048   6.599   1.967   7.356
18734SOL    HW161049   6.605   2.052   7.304
18734SOL    HW261050   6.631   1.891   7.299
18735SOL     OW61051   6.090   1.912   7.326
18735SOL    HW161052   6.048   1.855   7.256
18735SOL    HW261053   6.024   1.981   7.358
18736SOL     OW61054   6.159   2.732   6.615
18736SOL    HW161055   6.203   2.821   6.606
18736SOL    HW261056   6.096   2.732   6.692
18737SOL     OW61057   6.946   2.724   6.631
18737SOL    HW161058   6.871   2.724   6.565
18737SOL    HW261059   6.983   2.632   6.640
18738SOL     OW61060   5.893   2.075   6.817
18738SOL    HW161061   5.870   2.112   6.907
18738SOL    HW261062   5.863   1.980   6.811
18739SOL     OW61063   5.623   3.172   6.868
18739SOL    HW161064   5.676   3.123   6.936
18739SOL    HW261065   5.645   3.270   6.873
18740SOL     OW61066   6.318   2.496   6.650
18740SOL    HW161067   6.377   2.470   6.574
18740SOL    HW261068   6.290   2.592   6.639
18741SOL     OW61069   7.314   2.797   7.440
18741SOL    HW161070   7.268   2.790   7.351
18741SOL    HW261071   7.252   2.841   7.506
18742SOL     OW61072   5.893   1.925   6.204
18742SOL    HW161073   5.882   2.019   6.237
18742SOL    HW261074   5.888   1.862   6.281
18743SOL     OW61075   7.208   2.229   5.960
18743SOL    HW161076   7.210   2.153   6.024
18743SOL    HW261077   7.160   2.306   6.000
18744SOL     OW61078   6.609   2.628   6.552
18744SOL    HW161079   6.624   2.649   6.648
18744SOL    HW261080   6.579   2.533   6.543
18745SOL     OW61081   6.566   3.435   7.286
18745SOL    HW161082   6.546   3.479   7.198
18745SOL    HW261083   6.605   3.344   7.270
18746SOL     OW61084   7.445   3.380   7.191
18746SOL    HW161085   7.459   3.407   7.096
18746SOL    HW261086   7.528   3.402   7.244
18747SOL     OW61087   5.936   2.760   7.390
18747SOL    HW161088   6.012   2.804   7.438
18747SOL    HW261089   5.971   2.713   7.308
18748SOL     OW61090   7.126   2.136   5.711
18748SOL    HW161091   7.065   2.061   5.734
18748SOL    HW261092   7.148   2.188   5.794
18749SOL     OW61093   6.889   2.700   5.628
18749SOL    HW161094   6.923   2.607   5.643
18749SOL    HW261095   6.907   2.727   5.533
18750SOL     OW61096   6.654   3.195   6.435
18750SOL    HW161097   6.661   3.111   6.380
18750SOL    HW261098   6.716   3.264   6.399
18751SOL     OW61099   5.905   2.672   6.535
18751SOL    HW161100   5.998   2.708   6.540
18751SOL    HW261101   5.899   2.587   6.587
18752SOL     OW61102   5.925   2.371   6.592
18752SOL    HW161103   5.873   2.288   6.575
18752SOL    HW261104   6.002   2.376   6.528
18753SOL     OW61105   6.724   2.242   7.264
18753SOL    HW161106   6.679   2.305   7.328
18753SOL    HW261107   6.817   2.273   7.247
18754SOL     OW61108   6.746   2.069   7.063
18754SOL    HW161109   6.746   2.133   7.140
18754SOL    HW261110   6.774   2.117   6.980
18755SOL     OW61111   5.594   3.188   5.786
18755SOL    HW161112   5.501   3.209   5.755
18755SOL    HW261113   5.604   3.089   5.799
18756SOL     OW61114   5.674   3.663   6.513
18756SOL    HW161115   5.632   3.577   6.486
18756SOL    HW261116   5.768   3.666   6.479
18757SOL     OW61117   6.090   3.430   6.496
18757SOL    HW161118   6.156   3.504   6.505
18757SOL    HW261119   6.134   3.351   6.454
18758SOL     OW61120   6.588   2.658   6.824
18758SOL    HW161121   6.629   2.626   6.910
18758SOL    HW261122   6.492   2.631   6.821
18759SOL     OW61123   5.626   2.406   6.700
18759SOL    HW161124   5.711   2.373   6.659
18759SOL    HW261125   5.639   2.421   6.798
18760SOL     OW61126   5.775   2.382   7.308
18760SOL    HW161127   5.834   2.342   7.238
18760SOL    HW261128   5.717   2.453   7.267
18761SOL     OW61129   6.955   2.812   7.246
18761SOL    HW161130   6.994   2.901   7.266
18761SOL    HW261131   6.965   2.792   7.149
18762SOL     OW61132   6.401   2.434   5.911
18762SOL    HW161133   6.408   2.345   5.865
18762SOL    HW261134   6.307   2.468   5.903
18763SOL     OW61135   7.243   2.466   6.792
18763SOL    HW161136   7.205   2.397   6.854
18763SOL    HW261137   7.325   2.430   6.748
18764SOL     OW61138   5.838   3.426   7.330
18764SOL    HW161139   5.808   3.483   7.406
18764SOL    HW261140   5.831   3.329   7.356
18765SOL     OW61141   6.257   2.326   6.855
18765SOL    HW161142   6.223   2.237   6.825
18765SOL    HW261143   6.283   2.380   6.775
18766SOL     OW61144   6.516   3.540   7.051
18766SOL    HW161145   6.492   3.522   6.956
18766SOL    HW261146   6.546   3.634   7.061
18767SOL     OW61147   5.745   2.999   7.052
18767SOL    HW161148   5.767   2.938   7.128
18767SOL    HW261149   5.755   2.950   6.966
18768SOL     OW61150   6.933   2.921   6.820
18768SOL    HW161151   6.957   2.858   6.746
18768SOL    HW261152   6.843   2.961   6.802
18769SOL     OW61153   6.888   2.717   5.895
18769SOL    HW161154   6.802   2.686   5.937
18769SOL    HW261155   6.884   2.703   5.796
18770SOL     OW61156   7.345   3.609   6.740
18770SOL    HW161157   7.406   3.639   6.667
18770SOL    HW261158   7.307   3.520   6.718
18771SOL     OW61159   6.838   3.593   6.714
18771SOL    HW161160   6.922   3.598   6.660
18771SOL    HW261161   6.815   3.497   6.732
18772SOL     OW61162   6.274   3.524   7.302
18772SOL    HW161163   6.218   3.605   7.311
18772SOL    HW261164   6.326   3.528   7.216
18773SOL     OW61165   7.312   1.997   6.109
18773SOL    HW161166   7.385   1.980   6.042
18773SOL    HW261167   7.281   1.910   6.147
18774SOL     OW61168   6.974   3.435   6.063
18774SOL    HW161169   7.041   3.447   5.989
18774SOL    HW261170   6.934   3.524   6.086
18775SOL     OW61171   5.716   3.656   7.437
18775SOL    HW161172   5.675   3.582   7.490
18775SOL    HW261173   5.780   3.707   7.495
18776SOL     OW61174   6.866   2.789   6.258
18776SOL    HW161175   6.926   2.708   6.260
18776SOL    HW261176   6.906   2.858   6.198
18777SOL     OW61177   6.416   3.135   7.008
18777SOL    HW161178   6.411   3.168   7.103
18777SOL    HW261179   6.330   3.154   6.962
18778SOL     OW61180   6.258   3.478   5.740
18778SOL    HW161181   6.267   3.488   5.641
18778SOL    HW261182   6.218   3.389   5.761
18779SOL     OW61183   7.236   3.582   6.980
18779SOL    HW161184   7.289   3.592   6.896
18779SOL    HW261185   7.209   3.672   7.014
18780SOL     OW61186   5.849   2.188   6.306
18780SOL    HW161187   5.770   2.239   6.272
18780SOL    HW261188   5.840   2.173   6.404
18781SOL     OW61189   6.780   3.474   5.617
18781SOL    HW161190   6.786   3.381   5.654
18781SOL    HW261191   6.721   3.474   5.537
18782SOL     OW61192   6.408   2.864   6.958
18782SOL    HW161193   6.448   2.863   6.866
18782SOL    HW261194   6.418   2.956   6.998
18783SOL     OW61195   6.502   2.772   5.877
18783SOL    HW161196   6.565   2.810   5.809
18783SOL    HW261197   6.542   2.689   5.916
18784SOL     OW61198   7.090   3.469   5.630
18784SOL    HW161199   6.998   3.506   5.637
18784SOL    HW261200   7.128   3.489   5.540
18785SOL     OW61201   5.958   3.150   7.076
18785SOL    HW161202   5.945   3.243   7.042
18785SOL    HW261203   5.874   3.098   7.063
18786SOL     OW61204   7.200   3.154   6.875
18786SOL    HW161205   7.260   3.157   6.955
18786SOL    HW261206   7.125   3.218   6.888
18787SOL     OW61207   6.625   2.960   6.282
18787SOL    HW161208   6.555   2.913   6.336
18787SOL    HW261209   6.684   2.892   6.239
18788SOL     OW61210   6.600   2.098   6.557
18788SOL    HW161211   6.592   2.062   6.464
18788SOL    HW261212   6.598   2.022   6.622
18789SOL     OW61213   6.176   3.349   6.077
18789SOL    HW161214   6.218   3.291   6.007
18789SOL    HW261215   6.132   3.428   6.033
18790SOL     OW61216   7.295   2.247   6.967
18790SOL    HW161217   7.368   2.316   6.971
18790SOL    HW261218   7.323   2.172   6.908
18791SOL     OW61219   5.841   3.210   5.876
18791SOL    HW161220   5.745   3.211   5.849
18791SOL    HW261221   5.853   3.263   5.960
18792SOL     OW61222   5.691   2.875   7.312
18792SOL    HW161223   5.614   2.842   7.366
18792SOL    HW261224   5.776   2.845   7.354
18793SOL     OW61225   6.258   2.065   7.075
18793SOL    HW161226   6.348   2.049   7.035
18793SOL    HW261227   6.266   2.070   7.174
18794SOL     OW61228   5.661   2.207   5.619
18794SOL    HW161229   5.569   2.179   5.590
18794SOL    HW261230   5.692   2.284   5.563
18795SOL     OW61231   7.026   2.718   6.984
18795SOL    HW161232   6.969   2.770   6.921
18795SOL    HW261233   7.122   2.730   6.960
18796SOL     OW61234   5.658   2.028   5.904
18796SOL    HW161235   5.641   2.111   5.850
18796SOL    HW261236   5.748   1.991   5.882
18797SOL     OW61237   6.769   3.197   5.705
18797SOL    HW161238   6.670   3.186   5.707
18797SOL    HW261239   6.803   3.212   5.798
18798SOL     OW61240   6.199   2.704   7.017
18798SOL    HW161241   6.255   2.785   7.000
18798SOL    HW261242   6.258   2.624   7.020
18799SOL     OW61243   7.079   3.629   6.545
18799SOL    HW161244   7.112   3.693   6.476
18799SOL    HW261245   7.145   3.623   6.620
18800SOL     OW61246   6.302   2.427   7.294
18800SOL    HW161247   6.321   2.492   7.368
18800SOL    HW261248   6.362   2.347   7.303
18801SOL     OW61249   7.036   3.082   7.219
18801SOL    HW161250   7.027   3.072   7.318
18801SOL    HW261251   7.132   3.075   7.193
18802SOL     OW61252   5.976   3.603   7.146
18802SOL    HW161253   5.885   3.644   7.144
18802SOL    HW261254   5.969   3.509   7.178
18803SOL     OW61255   6.811   2.187   6.035
18803SOL    HW161256   6.876   2.113   6.024
18803SOL    HW261257   6.831   2.237   6.119
18804SOL     OW61258   6.180   2.607   6.238
18804SOL    HW161259   6.230   2.692   6.219
18804SOL    HW261260   6.092   2.609   6.190
18805SOL     OW61261   7.363   2.204   7.228
18805SOL    HW161262   7.346   2.235   7.134
18805SOL    HW261263   7.279   2.167   7.266
18806SOL     OW61264   7.316   2.796   7.103
18806SOL    HW161265   7.354   2.887   7.118
18806SOL    HW261266   7.308   2.779   7.004
18807SOL     OW61267   6.445   3.236   5.602
18807SOL    HW161268   6.399   3.251   5.690
18807SOL    HW261269   6.489   3.321   5.572
18808SOL     OW61270   6.247   3.652   6.539
18808SOL    HW161271   6.201   3.740   6.526
18808SOL    HW261272   6.346   3.664   6.532
18809SOL     OW61273   6.445   2.818   6.447
18809SOL    HW161274   6.499   2.749   6.495
18809SOL    HW261275   6.413   2.887   6.513
18810SOL     OW61276   6.669   2.846   5.673
18810SOL    HW161277   6.646   2.899   5.591
18810SOL    HW261278   6.750   2.790   5.654
18811SOL     OW61279   7.447   3.431   6.437
18811SOL    HW161280   7.376   3.419   6.367
18811SOL    HW261281   7.448   3.352   6.497
18812SOL     OW61282   5.807   3.176   7.430
18812SOL    HW161283   5.742   3.103   7.409
18812SOL    HW261284   5.811   3.190   7.528
18813SOL     OW61285   5.665   3.102   6.239
18813SOL    HW161286   5.664   3.055   6.327
18813SOL    HW261287   5.747   3.074   6.188
18814SOL     OW61288   6.258   3.253   7.210
18814SOL    HW161289   6.180   3.203   7.248
18814SOL    HW261290   6.255   3.348   7.241
18815SOL     OW61291   7.410   2.054   6.813
18815SOL    HW161292   7.406   1.964   6.857
18815SOL    HW261293   7.413   2.043   6.714
18816SOL     OW61294   6.014   2.286   6.106
18816SOL    HW161295   6.044   2.214   6.044
18816SOL    HW261296   5.975   2.246   6.189
18817SOL     OW61297   7.291   3.349   6.690
18817SOL    HW161298   7.198   3.324   6.663
18817SOL    HW261299   7.317   3.299   6.772
18818SOL     OW61300   5.903   2.409   6.866
18818SOL    HW161301   5.941   2.350   6.938
18818SOL    HW261302   5.943   2.383   6.778
18819SOL     OW61303   6.398   3.448   6.273
18819SOL    HW161304   6.430   3.458   6.179
18819SOL    HW261305   6.319   3.386   6.275
18820SOL     OW61306   7.010   2.076   6.698
18820SOL    HW161307   7.062   2.011   6.753
18820SOL    HW261308   6.961   2.139   6.759
18821SOL     OW61309   6.587   1.896   6.740
18821SOL    HW161310   6.524   1.824   6.709
18821SOL    HW261311   6.680   1.860   6.740
18822SOL     OW61312   6.356   3.192   5.887
18822SOL    HW161313   6.310   3.105   5.904
18822SOL    HW261314   6.447   3.189   5.928
18823SOL     OW61315   6.938   1.914   5.754
18823SOL    HW161316   6.973   1.873   5.670
18823SOL    HW261317   6.848   1.876   5.774
18824SOL     OW61318   6.886   2.315   6.277
18824SOL    HW161319   6.827   2.395   6.281
18824SOL    HW261320   6.901   2.280   6.370
18825SOL     OW61321   5.625   2.939   5.886
18825SOL    HW161322   5.724   2.928   5.877
18825SOL    HW261323   5.585   2.853   5.918
18826SOL     OW61324   6.461   3.508   5.923
18826SOL    HW161325   6.384   3.473   5.869
18826SOL    HW261326   6.429   3.579   5.985
18827SOL     OW61327   5.816   2.490   7.561
18827SOL    HW161328   5.723   2.488   7.598
18827SOL    HW261329   5.817   2.451   7.469
18828SOL     OW61330   5.811   2.137   8.444
18828SOL    HW161331   5.846   2.120   8.536
18828SOL    HW261332   5.723   2.092   8.432
18829SOL     OW61333   5.605   2.230   8.095
18829SOL    HW161334   5.523   2.273   8.134
18829SOL    HW261335   5.577   2.157   8.032
18830SOL     OW61336   6.155   3.137   8.613
18830SOL    HW161337   6.062   3.130   8.576
18830SOL    HW261338   6.166   3.226   8.657
18831SOL     OW61339   7.141   3.373   8.151
18831SOL    HW161340   7.084   3.357   8.232
18831SOL    HW261341   7.082   3.383   8.071
18832SOL     OW61342   6.721   2.565   8.165
18832SOL    HW161343   6.778   2.643   8.140
18832SOL    HW261344   6.661   2.591   8.241
18833SOL     OW61345   7.341   2.469   7.679
18833SOL    HW161346   7.329   2.456   7.580
18833SOL    HW261347   7.311   2.388   7.728
18834SOL     OW61348   6.354   3.006   8.471
18834SOL    HW161349   6.276   3.023   8.531
18834SOL    HW261350   6.388   3.093   8.435
18835SOL     OW61351   6.271   2.874   8.113
18835SOL    HW161352   6.340   2.858   8.183
18835SOL    HW261353   6.198   2.931   8.151
18836SOL     OW61354   6.272   3.023   9.251
18836SOL    HW161355   6.332   3.102   9.265
18836SOL    HW261356   6.186   3.054   9.210
18837SOL     OW61357   5.921   3.297   8.509
18837SOL    HW161358   5.843   3.266   8.456
18837SOL    HW261359   5.979   3.355   8.452
18838SOL     OW61360   7.046   3.367   8.787
18838SOL    HW161361   7.070   3.461   8.813
18838SOL    HW261362   7.030   3.313   8.869
18839SOL     OW61363   6.024   2.254   8.947
18839SOL    HW161364   6.106   2.198   8.956
18839SOL    HW261365   5.943   2.196   8.951
18840SOL     OW61366   7.189   2.309   8.185
18840SOL    HW161367   7.115   2.355   8.135
18840SOL    HW261368   7.240   2.377   8.238
18841SOL     OW61369   5.817   3.575   7.931
18841SOL    HW161370   5.851   3.652   7.985
18841SOL    HW261371   5.861   3.575   7.841
18842SOL     OW61372   6.713   3.203   9.138
18842SOL    HW161373   6.760   3.203   9.226
18842SOL    HW261374   6.665   3.116   9.127
18843SOL     OW61375   5.816   3.296   7.986
18843SOL    HW161376   5.790   3.392   7.986
18843SOL    HW261377   5.745   3.242   8.031
18844SOL     OW61378   5.826   2.953   8.334
18844SOL    HW161379   5.840   2.869   8.386
18844SOL    HW261380   5.771   3.017   8.389
18845SOL     OW61381   6.206   3.648   8.887
18845SOL    HW161382   6.114   3.631   8.922
18845SOL    HW261383   6.234   3.740   8.913
18846SOL     OW61384   6.192   2.826   7.571
18846SOL    HW161385   6.199   2.910   7.517
18846SOL    HW261386   6.238   2.839   7.659
18847SOL     OW61387   7.180   1.976   8.928
18847SOL    HW161388   7.162   2.043   8.856
18847SOL    HW261389   7.177   2.022   9.017
18848SOL     OW61390   5.708   2.505   8.011
18848SOL    HW161391   5.663   2.417   8.028
18848SOL    HW261392   5.707   2.559   8.095
18849SOL     OW61393   7.428   3.629   7.807
18849SOL    HW161394   7.482   3.600   7.887
18849SOL    HW261395   7.458   3.719   7.778
18850SOL     OW61396   5.613   3.458   7.565
18850SOL    HW161397   5.594   3.362   7.586
18850SOL    HW261398   5.580   3.516   7.640
18851SOL     OW61399   7.227   2.970   7.880
18851SOL    HW161400   7.313   2.972   7.828
18851SOL    HW261401   7.241   3.017   7.968
18852SOL     OW61402   5.699   2.599   9.045
18852SOL    HW161403   5.787   2.586   9.090
18852SOL    HW261404   5.686   2.696   9.023
18853SOL     OW61405   6.199   3.227   8.174
18853SOL    HW161406   6.150   3.140   8.183
18853SOL    HW261407   6.176   3.270   8.087
18854SOL     OW61408   6.879   3.090   8.871
18854SOL    HW161409   6.916   3.017   8.813
18854SOL    HW261410   6.931   3.095   8.956
18855SOL     OW61411   6.395   1.866   7.950
18855SOL    HW161412   6.435   1.957   7.941
18855SOL    HW261413   6.295   1.874   7.956
18856SOL     OW61414   5.783   2.838   8.712
18856SOL    HW161415   5.872   2.793   8.698
18856SOL    HW261416   5.710   2.773   8.693
18857SOL     OW61417   7.111   2.861   7.638
18857SOL    HW161418   7.048   2.785   7.651
18857SOL    HW261419   7.159   2.879   7.724
18858SOL     OW61420   6.773   3.654   9.064
18858SOL    HW161421   6.797   3.714   8.988
18858SOL    HW261422   6.780   3.559   9.034
18859SOL     OW61423   5.903   2.113   9.249
18859SOL    HW161424   5.974   2.184   9.255
18859SOL    HW261425   5.815   2.152   9.277
18860SOL     OW61426   7.253   3.576   8.020
18860SOL    HW161427   7.212   3.553   7.932
18860SOL    HW261428   7.235   3.502   8.085
18861SOL     OW61429   6.184   2.591   7.718
18861SOL    HW161430   6.208   2.660   7.650
18861SOL    HW261431   6.106   2.624   7.772
18862SOL     OW61432   6.867   2.207   8.392
18862SOL    HW161433   6.781   2.157   8.379
18862SOL    HW261434   6.929   2.153   8.448
18863SOL     OW61435   7.162   3.524   7.755
18863SOL    HW161436   7.251   3.570   7.758
18863SOL    HW261437   7.141   3.500   7.660
18864SOL     OW61438   6.393   2.467   8.913
18864SOL    HW161439   6.346   2.464   9.002
18864SOL    HW261440   6.342   2.412   8.847
18865SOL     OW61441   6.980   2.331   9.122
18865SOL    HW161442   6.960   2.374   9.210
18865SOL    HW261443   7.058   2.269   9.131
18866SOL     OW61444   6.559   2.752   9.020
18866SOL    HW161445   6.605   2.668   8.991
18866SOL    HW261446   6.503   2.786   8.945
18867SOL     OW61447   6.577   2.272   8.690
18867SOL    HW161448   6.500   2.306   8.744
18867SOL    HW261449   6.543   2.221   8.611
18868SOL     OW61450   6.627   2.563   7.877
18868SOL    HW161451   6.653   2.559   7.973
18868SOL    HW261452   6.542   2.512   7.863
18869SOL     OW61453   5.662   2.673   8.237
18869SOL    HW161454   5.761   2.661   8.246
18869SOL    HW261455   5.638   2.768   8.258
18870SOL     OW61456   5.716   3.683   9.019
18870SOL    HW161457   5.706   3.668   9.118
18870SOL    HW261458   5.630   3.719   8.983
18871SOL     OW61459   6.451   2.210   7.643
18871SOL    HW161460   6.510   2.273   7.594
18871SOL    HW261461   6.470   2.116   7.614
18872SOL     OW61462   7.305   2.447   9.279
18872SOL    HW161463   7.279   2.536   9.243
18872SOL    HW261464   7.303   2.379   9.206
18873SOL     OW61465   6.948   3.006   7.993
18873SOL    HW161466   7.031   2.977   7.945
18873SOL    HW261467   6.899   3.073   7.937
18874SOL     OW61468   6.136   2.058   8.333
18874SOL    HW161469   6.131   2.053   8.433
18874SOL    HW261470   6.138   2.154   8.304
18875SOL     OW61471   6.594   3.318   7.925
18875SOL    HW161472   6.548   3.390   7.873
18875SOL    HW261473   6.590   3.338   8.023
18876SOL     OW61474   5.937   3.663   8.301
18876SOL    HW161475   5.987   3.577   8.307
18876SOL    HW261476   6.002   3.740   8.298
18877SOL     OW61477   7.381   2.928   8.321
18877SOL    HW161478   7.319   2.913   8.245
18877SOL    HW261479   7.329   2.939   8.406
18878SOL     OW61480   6.813   3.412   8.954
18878SOL    HW161481   6.819   3.335   9.018
18878SOL    HW261482   6.761   3.386   8.874
18879SOL     OW61483   5.907   2.805   7.690
18879SOL    HW161484   5.989   2.844   7.648
18879SOL    HW261485   5.880   2.723   7.641
18880SOL     OW61486   7.044   2.597   8.176
18880SOL    HW161487   7.039   2.532   8.251
18880SOL    HW261488   7.124   2.656   8.189
18881SOL     OW61489   6.047   3.128   9.175
18881SOL    HW161490   5.997   3.129   9.089
18881SOL    HW261491   5.984   3.110   9.251
18882SOL     OW61492   6.697   3.638   7.685
18882SOL    HW161493   6.637   3.576   7.735
18882SOL    HW261494   6.728   3.594   7.600
18883SOL     OW61495   5.788   2.147   8.946
18883SOL    HW161496   5.708   2.207   8.933
18883SOL    HW261497   5.778   2.098   9.032
18884SOL     OW61498   7.218   3.239   7.529
18884SOL    HW161499   7.186   3.333   7.519
18884SOL    HW261500   7.142   3.176   7.517
18885SOL     OW61501   6.050   3.605   7.771
18885SOL    HW161502   6.083   3.644   7.857
18885SOL    HW261503   6.126   3.598   7.706
18886SOL     OW61504   6.986   1.969   7.874
18886SOL    HW161505   6.962   1.932   7.784
18886SOL    HW261506   7.085   1.985   7.878
18887SOL     OW61507   5.835   3.647   8.689
18887SOL    HW161508   5.892   3.582   8.739
18887SOL    HW261509   5.819   3.614   8.596
18888SOL     OW61510   6.526   3.560   8.352
18888SOL    HW161511   6.606   3.503   8.373
18888SOL    HW261512   6.477   3.520   8.275
18889SOL     OW61513   5.968   2.562   7.928
18889SOL    HW161514   6.013   2.472   7.925
18889SOL    HW261515   5.874   2.551   7.961
18890SOL     OW61516   7.133   2.084   9.177
18890SOL    HW161517   7.128   2.121   9.269
18890SOL    HW261518   7.061   2.015   9.165
18891SOL     OW61519   6.200   1.984   7.565
18891SOL    HW161520   6.298   1.962   7.572
18891SOL    HW261521   6.169   1.967   7.472
18892SOL     OW61522   6.367   2.126   9.197
18892SOL    HW161523   6.434   2.065   9.240
18892SOL    HW261524   6.294   2.145   9.262
18893SOL     OW61525   6.474   3.376   8.643
18893SOL    HW161526   6.451   3.351   8.549
18893SOL    HW261527   6.535   3.307   8.682
18894SOL     OW61528   6.937   2.452   8.881
18894SOL    HW161529   6.965   2.409   8.966
18894SOL    HW261530   6.962   2.548   8.882
18895SOL     OW61531   6.389   3.264   8.372
18895SOL    HW161532   6.479   3.278   8.330
18895SOL    HW261533   6.318   3.266   8.301
18896SOL     OW61534   6.508   2.365   8.347
18896SOL    HW161535   6.483   2.356   8.251
18896SOL    HW261536   6.556   2.283   8.378
18897SOL     OW61537   6.125   1.926   7.960
18897SOL    HW161538   6.044   1.927   8.018
18897SOL    HW261539   6.128   2.009   7.905
18898SOL     OW61540   7.020   3.050   7.489
18898SOL    HW161541   7.052   2.974   7.546
18898SOL    HW261542   6.928   3.077   7.519
18899SOL     OW61543   5.883   1.897   7.619
18899SOL    HW161544   5.932   1.981   7.598
18899SOL    HW261545   5.945   1.832   7.664
18900SOL     OW61546   6.521   2.098   7.928
18900SOL    HW161547   6.473   2.139   7.850
18900SOL    HW261548   6.620   2.096   7.909
18901SOL     OW61549   6.662   2.545   8.912
18901SOL    HW161550   6.582   2.484   8.915
18901SOL    HW261551   6.743   2.492   8.888
18902SOL     OW61552   6.813   3.432   8.241
18902SOL    HW161553   6.834   3.506   8.176
18902SOL    HW261554   6.881   3.432   8.314
18903SOL     OW61555   6.045   3.014   8.189
18903SOL    HW161556   5.974   2.987   8.254
18903SOL    HW261557   6.019   2.986   8.096
18904SOL     OW61558   6.857   3.659   8.039
18904SOL    HW161559   6.901   3.723   7.975
18904SOL    HW261560   6.807   3.711   8.109
18905SOL     OW61561   6.618   2.411   7.464
18905SOL    HW161562   6.577   2.493   7.425
18905SOL    HW261563   6.682   2.437   7.537
18906SOL     OW61564   5.664   2.418   8.834
18906SOL    HW161565   5.756   2.417   8.793
18906SOL    HW261566   5.658   2.492   8.901
18907SOL     OW61567   6.147   2.084   8.595
18907SOL    HW161568   6.185   2.000   8.632
18907SOL    HW261569   6.059   2.103   8.639
18908SOL     OW61570   6.452   2.316   8.090
18908SOL    HW161571   6.420   2.388   8.028
18908SOL    HW261572   6.476   2.235   8.037
18909SOL     OW61573   6.603   1.901   8.201
18909SOL    HW161574   6.531   1.906   8.132
18909SOL    HW261575   6.579   1.832   8.270
18910SOL     OW61576   7.015   3.035   8.315
18910SOL    HW161577   6.960   2.951   8.308
18910SOL    HW261578   7.041   3.064   8.223
18911SOL     OW61579   7.052   2.452   8.440
18911SOL    HW161580   7.022   2.357   8.447
18911SOL    HW261581   7.125   2.468   8.506
18912SOL     OW61582   7.443   2.695   7.825
18912SOL    HW161583   7.485   2.631   7.889
18912SOL    HW261584   7.405   2.644   7.747
18913SOL     OW61585   6.074   3.247   7.622
18913SOL    HW161586   5.987   3.232   7.669
18913SOL    HW261587   6.057   3.273   7.527
18914SOL     OW61588   7.250   3.142   8.105
18914SOL    HW161589   7.349   3.150   8.119
18914SOL    HW261590   7.205   3.226   8.136
18915SOL     OW61591   6.976   2.437   7.526
18915SOL    HW161592   6.922   2.416   7.607
18915SOL    HW261593   7.067   2.396   7.535
18916SOL     OW61594   6.113   2.118   7.776
18916SOL    HW161595   6.140   2.059   7.701
18916SOL    HW261596   6.113   2.213   7.745
18917SOL     OW61597   7.340   3.085   9.036
18917SOL    HW161598   7.431   3.046   9.023
18917SOL    HW261599   7.348   3.181   9.060
18918SOL     OW61600   6.650   3.209   8.788
18918SOL    HW161601   6.570   3.186   8.843
18918SOL    HW261602   6.733   3.183   8.837
18919SOL     OW61603   7.178   3.491   9.073
18919SOL    HW161604   7.205   3.525   8.983
18919SOL    HW261605   7.257   3.453   9.119
18920SOL     OW61606   6.697   3.057   8.548
18920SOL    HW161607   6.657   3.101   8.629
18920SOL    HW261608   6.656   3.094   8.465
18921SOL     OW61609   7.224   2.961   8.527
18921SOL    HW161610   7.229   3.042   8.586
18921SOL    HW261611   7.138   2.963   8.476
18922SOL     OW61612   6.501   1.951   8.850
18922SOL    HW161613   6.526   1.931   8.755
18922SOL    HW261614   6.573   2.007   8.892
18923SOL     OW61615   6.566   2.978   9.167
18923SOL    HW161616   6.467   2.984   9.177
18923SOL    HW261617   6.589   2.898   9.111
18924SOL     OW61618   6.291   2.912   7.816
18924SOL    HW161619   6.277   2.919   7.915
18924SOL    HW261620   6.375   2.861   7.798
18925SOL     OW61621   5.996   2.675   8.699
18925SOL    HW161622   6.082   2.687   8.749
18925SOL    HW261623   5.954   2.588   8.726
18926SOL     OW61624   6.860   2.248   8.710
18926SOL    HW161625   6.881   2.322   8.774
18926SOL    HW261626   6.771   2.265   8.667
18927SOL     OW61627   5.650   3.426   8.779
18927SOL    HW161628   5.604   3.508   8.745
18927SOL    HW261629   5.748   3.445   8.788
18928SOL     OW61630   5.953   2.962   7.949
18928SOL    HW161631   5.946   3.045   7.893
18928SOL    HW261632   5.957   2.882   7.889
18929SOL     OW61633   6.152   2.399   8.313
18929SOL    HW161634   6.164   2.465   8.239
18929SOL    HW261635   6.198   2.433   8.396
18930SOL     OW61636   6.838   3.210   7.836
18930SOL    HW161637   6.888   3.287   7.876
18930SOL    HW261638   6.743   3.212   7.868
18931SOL     OW61639   6.858   3.307   8.590
18931SOL    HW161640   6.905   3.320   8.677
18931SOL    HW261641   6.792   3.233   8.599
18932SOL     OW61642   7.168   2.501   7.920
18932SOL    HW161643   7.137   2.562   7.993
18932SOL    HW261644   7.218   2.553   7.851
18933SOL     OW61645   5.940   3.372   8.777
18933SOL    HW161646   5.919   3.328   8.690
18933SOL    HW261647   6.037   3.398   8.780
18934SOL     OW61648   5.988   2.613   9.046
18934SOL    HW161649   6.056   2.668   8.999
18934SOL    HW261650   6.028   2.525   9.073
18935SOL     OW61651   7.173   2.641   9.118
18935SOL    HW161652   7.081   2.679   9.113
18935SOL    HW261653   7.233   2.688   9.053
18936SOL     OW61654   6.599   1.967   9.218
18936SOL    HW161655   6.605   2.052   9.166
18936SOL    HW261656   6.631   1.891   9.161
18937SOL     OW61657   6.090   1.912   9.188
18937SOL    HW161658   6.048   1.855   9.118
18937SOL    HW261659   6.024   1.981   9.220
18938SOL     OW61660   6.159   2.732   8.477
18938SOL    HW161661   6.203   2.821   8.468
18938SOL    HW261662   6.096   2.732   8.554
18939SOL     OW61663   6.946   2.724   8.493
18939SOL    HW161664   6.871   2.724   8.427
18939SOL    HW261665   6.983   2.632   8.502
18940SOL     OW61666   6.795   2.387   7.723
18940SOL    HW161667   6.808   2.303   7.777
18940SOL    HW261668   6.766   2.461   7.783
18941SOL     OW61669   5.893   2.075   8.679
18941SOL    HW161670   5.870   2.112   8.769
18941SOL    HW261671   5.863   1.980   8.673
18942SOL     OW61672   5.623   3.172   8.730
18942SOL    HW161673   5.676   3.123   8.798
18942SOL    HW261674   5.645   3.270   8.735
18943SOL     OW61675   6.318   2.496   8.512
18943SOL    HW161676   6.377   2.470   8.436
18943SOL    HW261677   6.290   2.592   8.501
18944SOL     OW61678   7.314   2.797   9.302
18944SOL    HW161679   7.268   2.790   9.213
18944SOL    HW261680   7.252   2.841   9.368
18945SOL     OW61681   5.893   1.925   8.066
18945SOL    HW161682   5.882   2.019   8.099
18945SOL    HW261683   5.888   1.862   8.143
18946SOL     OW61684   7.208   2.229   7.822
18946SOL    HW161685   7.210   2.153   7.886
18946SOL    HW261686   7.160   2.306   7.862
18947SOL     OW61687   6.609   2.628   8.414
18947SOL    HW161688   6.624   2.649   8.510
18947SOL    HW261689   6.579   2.533   8.405
18948SOL     OW61690   6.566   3.435   9.148
18948SOL    HW161691   6.546   3.479   9.060
18948SOL    HW261692   6.605   3.344   9.132
18949SOL     OW61693   7.445   3.380   9.053
18949SOL    HW161694   7.459   3.407   8.958
18949SOL    HW261695   7.528   3.402   9.106
18950SOL     OW61696   5.936   2.760   9.252
18950SOL    HW161697   6.012   2.804   9.300
18950SOL    HW261698   5.971   2.713   9.170
18951SOL     OW61699   7.126   2.136   7.573
18951SOL    HW161700   7.065   2.061   7.596
18951SOL    HW261701   7.148   2.188   7.656
18952SOL     OW61702   6.889   2.700   7.490
18952SOL    HW161703   6.923   2.607   7.505
18952SOL    HW261704   6.907   2.727   7.395
18953SOL     OW61705   6.654   3.195   8.297
18953SOL    HW161706   6.661   3.111   8.242
18953SOL    HW261707   6.716   3.264   8.261
18954SOL     OW61708   5.905   2.672   8.397
18954SOL    HW161709   5.998   2.708   8.402
18954SOL    HW261710   5.899   2.587   8.449
18955SOL     OW61711   5.925   2.371   8.454
18955SOL    HW161712   5.873   2.288   8.437
18955SOL    HW261713   6.002   2.376   8.390
18956SOL     OW61714   6.724   2.242   9.126
18956SOL    HW161715   6.679   2.305   9.190
18956SOL    HW261716   6.817   2.273   9.109
18957SOL     OW61717   6.746   2.069   8.925
18957SOL    HW161718   6.746   2.133   9.002
18957SOL    HW261719   6.774   2.117   8.842
18958SOL     OW61720   5.594   3.188   7.648
18958SOL    HW161721   5.501   3.209   7.617
18958SOL    HW261722   5.604   3.089   7.661
18959SOL     OW61723   5.674   3.663   8.375
18959SOL    HW161724   5.632   3.577   8.348
18959SOL    HW261725   5.768   3.666   8.341
18960SOL     OW61726   6.090   3.430   8.358
18960SOL    HW161727   6.156   3.504   8.367
18960SOL    HW261728   6.134   3.351   8.316
18961SOL     OW61729   6.588   2.658   8.686
18961SOL    HW161730   6.629   2.626   8.772
18961SOL    HW261731   6.492   2.631   8.683
18962SOL     OW61732   5.775   2.382   9.170
18962SOL    HW161733   5.834   2.342   9.100
18962SOL    HW261734   5.717   2.453   9.129
18963SOL     OW61735   6.955   2.812   9.108
18963SOL    HW161736   6.994   2.901   9.128
18963SOL    HW261737   6.965   2.792   9.011
18964SOL     OW61738   7.243   2.466   8.654
18964SOL    HW161739   7.205   2.397   8.716
18964SOL    HW261740   7.325   2.430   8.610
18965SOL     OW61741   5.838   3.426   9.192
18965SOL    HW161742   5.808   3.483   9.268
18965SOL    HW261743   5.831   3.329   9.218
18966SOL     OW61744   6.257   2.326   8.717
18966SOL    HW161745   6.223   2.237   8.687
18966SOL    HW261746   6.283   2.380   8.637
18967SOL     OW61747   6.516   3.540   8.913
18967SOL    HW161748   6.492   3.522   8.818
18967SOL    HW261749   6.546   3.634   8.923
18968SOL     OW61750   6.059   2.362   7.639
18968SOL    HW161751   6.120   2.442   7.643
18968SOL    HW261752   5.964   2.393   7.646
18969SOL     OW61753   5.745   2.999   8.914
18969SOL    HW161754   5.767   2.938   8.990
18969SOL    HW261755   5.755   2.950   8.828
18970SOL     OW61756   6.933   2.921   8.682
18970SOL    HW161757   6.957   2.858   8.608
18970SOL    HW261758   6.843   2.961   8.664
18971SOL     OW61759   6.888   2.717   7.757
18971SOL    HW161760   6.802   2.686   7.799
18971SOL    HW261761   6.884   2.703   7.658
18972SOL     OW61762   7.345   3.609   8.602
18972SOL    HW161763   7.406   3.639   8.529
18972SOL    HW261764   7.307   3.520   8.580
18973SOL     OW61765   6.838   3.593   8.576
18973SOL    HW161766   6.922   3.598   8.522
18973SOL    HW261767   6.815   3.497   8.594
18974SOL     OW61768   5.669   3.120   8.470
18974SOL    HW161769   5.664   3.119   8.570
18974SOL    HW261770   5.586   3.079   8.432
18975SOL     OW61771   6.274   3.524   9.164
18975SOL    HW161772   6.218   3.605   9.173
18975SOL    HW261773   6.326   3.528   9.078
18976SOL     OW61774   7.312   1.997   7.971
18976SOL    HW161775   7.385   1.980   7.904
18976SOL    HW261776   7.281   1.910   8.009
18977SOL     OW61777   6.974   3.435   7.925
18977SOL    HW161778   7.041   3.447   7.851
18977SOL    HW261779   6.934   3.524   7.948
18978SOL     OW61780   5.716   3.656   9.299
18978SOL    HW161781   5.675   3.582   9.352
18978SOL    HW261782   5.780   3.707   9.357
18979SOL     OW61783   6.866   2.789   8.120
18979SOL    HW161784   6.926   2.708   8.122
18979SOL    HW261785   6.906   2.858   8.060
18980SOL     OW61786   6.416   3.135   8.870
18980SOL    HW161787   6.411   3.168   8.965
18980SOL    HW261788   6.330   3.154   8.824
18981SOL     OW61789   6.258   3.478   7.602
18981SOL    HW161790   6.267   3.488   7.503
18981SOL    HW261791   6.218   3.389   7.623
18982SOL     OW61792   7.236   3.582   8.842
18982SOL    HW161793   7.289   3.592   8.758
18982SOL    HW261794   7.209   3.672   8.876
18983SOL     OW61795   7.427   2.037   8.411
18983SOL    HW161796   7.466   1.952   8.375
18983SOL    HW261797   7.329   2.039   8.392
18984SOL     OW61798   5.849   2.188   8.168
18984SOL    HW161799   5.770   2.239   8.134
18984SOL    HW261800   5.840   2.173   8.266
18985SOL     OW61801   6.780   3.474   7.479
18985SOL    HW161802   6.786   3.381   7.516
18985SOL    HW261803   6.721   3.474   7.399
18986SOL     OW61804   6.408   2.864   8.820
18986SOL    HW161805   6.448   2.863   8.728
18986SOL    HW261806   6.418   2.956   8.860
18987SOL     OW61807   6.502   2.772   7.739
18987SOL    HW161808   6.565   2.810   7.671
18987SOL    HW261809   6.542   2.689   7.778
18988SOL     OW61810   7.090   3.469   7.492
18988SOL    HW161811   6.998   3.506   7.499
18988SOL    HW261812   7.128   3.489   7.402
18989SOL     OW61813   5.958   3.150   8.938
18989SOL    HW161814   5.945   3.243   8.904
18989SOL    HW261815   5.874   3.098   8.925
18990SOL     OW61816   7.200   3.154   8.737
18990SOL    HW161817   7.260   3.157   8.817
18990SOL    HW261818   7.125   3.218   8.750
18991SOL     OW61819   6.625   2.960   8.144
18991SOL    HW161820   6.555   2.913   8.198
18991SOL    HW261821   6.684   2.892   8.101
18992SOL     OW61822   6.600   2.098   8.419
18992SOL    HW161823   6.592   2.062   8.326
18992SOL    HW261824   6.598   2.022   8.484
18993SOL     OW61825   7.295   2.247   8.829
18993SOL    HW161826   7.368   2.316   8.833
18993SOL    HW261827   7.323   2.172   8.770
18994SOL     OW61828   5.841   3.210   7.738
18994SOL    HW161829   5.745   3.211   7.711
18994SOL    HW261830   5.853   3.263   7.822
18995SOL     OW61831   5.691   2.875   9.174
18995SOL    HW161832   5.614   2.842   9.228
18995SOL    HW261833   5.776   2.845   9.216
18996SOL     OW61834   6.258   2.065   8.937
18996SOL    HW161835   6.348   2.049   8.897
18996SOL    HW261836   6.266   2.070   9.036
18997SOL     OW61837   5.661   2.207   7.481
18997SOL    HW161838   5.569   2.179   7.452
18997SOL    HW261839   5.692   2.284   7.425
18998SOL     OW61840   7.026   2.718   8.846
18998SOL    HW161841   6.969   2.770   8.783
18998SOL    HW261842   7.122   2.730   8.822
18999SOL     OW61843   5.658   2.028   7.766
18999SOL    HW161844   5.641   2.111   7.712
18999SOL    HW261845   5.748   1.991   7.744
19000SOL     OW61846   6.769   3.197   7.567
19000SOL    HW161847   6.670   3.186   7.569
19000SOL    HW261848   6.803   3.212   7.660
19001SOL     OW61849   6.199   2.704   8.879
19001SOL    HW161850   6.255   2.785   8.862
19001SOL    HW261851   6.258   2.624   8.882
19002SOL     OW61852   7.079   3.629   8.407
19002SOL    HW161853   7.112   3.693   8.338
19002SOL    HW261854   7.145   3.623   8.482
19003SOL     OW61855   6.302   2.427   9.156
19003SOL    HW161856   6.321   2.492   9.230
19003SOL    HW261857   6.362   2.347   9.165
19004SOL     OW61858   7.036   3.082   9.081
19004SOL    HW161859   7.027   3.072   9.180
19004SOL    HW261860   7.132   3.075   9.055
19005SOL     OW61861   5.976   3.603   9.008
19005SOL    HW161862   5.885   3.644   9.006
19005SOL    HW261863   5.969   3.509   9.040
19006SOL     OW61864   7.260   2.745   8.702
19006SOL    HW161865   7.233   2.656   8.665
19006SOL    HW261866   7.261   2.813   8.629
19007SOL     OW61867   6.811   2.187   7.897
19007SOL    HW161868   6.876   2.113   7.886
19007SOL    HW261869   6.831   2.237   7.981
19008SOL     OW61870   6.180   2.607   8.100
19008SOL    HW161871   6.230   2.692   8.081
19008SOL    HW261872   6.092   2.609   8.052
19009SOL     OW61873   7.363   2.204   9.090
19009SOL    HW161874   7.346   2.235   8.996
19009SOL    HW261875   7.279   2.167   9.128
19010SOL     OW61876   7.316   2.796   8.965
19010SOL    HW161877   7.354   2.887   8.980
19010SOL    HW261878   7.308   2.779   8.866
19011SOL     OW61879   6.445   3.236   7.464
19011SOL    HW161880   6.399   3.251   7.552
19011SOL    HW261881   6.489   3.321   7.434
19012SOL     OW61882   6.247   3.652   8.401
19012SOL    HW161883   6.201   3.740   8.388
19012SOL    HW261884   6.346   3.664   8.394
19013SOL     OW61885   6.445   2.818   8.309
19013SOL    HW161886   6.499   2.749   8.357
19013SOL    HW261887   6.413   2.887   8.375
19014SOL     OW61888   6.669   2.846   7.535
19014SOL    HW161889   6.646   2.899   7.453
19014SOL    HW261890   6.750   2.790   7.516
19015SOL     OW61891   7.447   3.431   8.299
19015SOL    HW161892   7.376   3.419   8.229
19015SOL    HW261893   7.448   3.352   8.359
19016SOL     OW61894   5.807   3.176   9.292
19016SOL    HW161895   5.742   3.103   9.271
19016SOL    HW261896   5.811   3.190   9.390
19017SOL     OW61897   5.665   3.102   8.101
19017SOL    HW161898   5.664   3.055   8.189
19017SOL    HW261899   5.747   3.074   8.050
19018SOL     OW61900   6.258   3.253   9.072
19018SOL    HW161901   6.180   3.203   9.110
19018SOL    HW261902   6.255   3.348   9.103
19019SOL     OW61903   7.410   2.054   8.675
19019SOL    HW161904   7.406   1.964   8.719
19019SOL    HW261905   7.413   2.043   8.576
19020SOL     OW61906   6.014   2.286   7.968
19020SOL    HW161907   6.044   2.214   7.906
19020SOL    HW261908   5.975   2.246   8.051
19021SOL     OW61909   7.291   3.349   8.552
19021SOL    HW161910   7.198   3.324   8.525
19021SOL    HW261911   7.317   3.299   8.634
19022SOL     OW61912   5.903   2.409   8.728
19022SOL    HW161913   5.941   2.350   8.800
19022SOL    HW261914   5.943   2.383   8.640
19023SOL     OW61915   6.398   3.448   8.135
19023SOL    HW161916   6.430   3.458   8.041
19023SOL    HW261917   6.319   3.386   8.137
19024SOL     OW61918   7.010   2.076   8.560
19024SOL    HW161919   7.062   2.011   8.615
19024SOL    HW261920   6.961   2.139   8.621
19025SOL     OW61921   6.587   1.896   8.602
19025SOL    HW161922   6.524   1.824   8.571
19025SOL    HW261923   6.680   1.860   8.602
19026SOL     OW61924   6.356   3.192   7.749
19026SOL    HW161925   6.310   3.105   7.766
19026SOL    HW261926   6.447   3.189   7.790
19027SOL     OW61927   6.938   1.914   7.616
19027SOL    HW161928   6.973   1.873   7.532
19027SOL    HW261929   6.848   1.876   7.636
19028SOL     OW61930   6.886   2.315   8.139
19028SOL    HW161931   6.827   2.395   8.143
19028SOL    HW261932   6.901   2.280   8.232
19029SOL     OW61933   7.179   2.083   8.330
19029SOL    HW161934   7.095   2.082   8.384
19029SOL    HW261935   7.181   2.166   8.274
19030SOL     OW61936   5.625   2.939   7.748
19030SOL    HW161937   5.724   2.928   7.739
19030SOL    HW261938   5.585   2.853   7.780
19031SOL     OW61939   6.461   3.508   7.785
19031SOL    HW161940   6.384   3.473   7.731
19031SOL    HW261941   6.429   3.579   7.847
19032SOL     OW61942   5.816   2.490   9.423
19032SOL    HW161943   5.723   2.488   9.460
19032SOL    HW261944   5.817   2.451   9.331
19033SOL     OW61945   7.341   2.469   9.541
19033SOL    HW161946   7.329   2.456   9.442
19033SOL    HW261947   7.311   2.388   9.590
19034SOL     OW61948   5.817   3.575   9.793
19034SOL    HW161949   5.851   3.652   9.847
19034SOL    HW261950   5.861   3.575   9.703
19035SOL     OW61951   5.816   3.296   9.848
19035SOL    HW161952   5.790   3.392   9.848
19035SOL    HW261953   5.745   3.242   9.893
19036SOL     OW61954   5.708   2.505   9.873
19036SOL    HW161955   5.663   2.417   9.890
19036SOL    HW261956   5.707   2.559   9.957
19037SOL     OW61957   7.428   3.629   9.669
19037SOL    HW161958   7.482   3.600   9.749
19037SOL    HW261959   7.458   3.719   9.640
19038SOL     OW61960   5.613   3.458   9.427
19038SOL    HW161961   5.594   3.362   9.448
19038SOL    HW261962   5.580   3.516   9.502
19039SOL     OW61963   7.275   2.784   9.922
19039SOL    HW161964   7.370   2.755   9.930
19039SOL    HW261965   7.267   2.849   9.847
19040SOL     OW61966   7.227   2.970   9.742
19040SOL    HW161967   7.313   2.972   9.690
19040SOL    HW261968   7.241   3.017   9.830
19041SOL     OW61969   6.199   3.227  10.036
19041SOL    HW161970   6.150   3.140  10.045
19041SOL    HW261971   6.176   3.270   9.949
19042SOL     OW61972   6.395   1.866   9.812
19042SOL    HW161973   6.435   1.957   9.803
19042SOL    HW261974   6.295   1.874   9.818
19043SOL     OW61975   7.111   2.861   9.500
19043SOL    HW161976   7.048   2.785   9.513
19043SOL    HW261977   7.159   2.879   9.586
19044SOL     OW61978   7.162   3.524   9.617
19044SOL    HW161979   7.251   3.570   9.620
19044SOL    HW261980   7.141   3.500   9.522
19045SOL     OW61981   5.662   2.673  10.099
19045SOL    HW161982   5.761   2.661  10.108
19045SOL    HW261983   5.638   2.768  10.120
19046SOL     OW61984   6.451   2.210   9.505
19046SOL    HW161985   6.510   2.273   9.456
19046SOL    HW261986   6.470   2.116   9.476
19047SOL     OW61987   6.594   3.318   9.787
19047SOL    HW161988   6.548   3.390   9.735
19047SOL    HW261989   6.590   3.338   9.885
19048SOL     OW61990   5.937   3.663  10.163
19048SOL    HW161991   5.987   3.577  10.169
19048SOL    HW261992   6.002   3.740  10.160
19049SOL     OW61993   6.697   3.638   9.547
19049SOL    HW161994   6.637   3.576   9.597
19049SOL    HW261995   6.728   3.594   9.462
19050SOL     OW61996   7.218   3.239   9.391
19050SOL    HW161997   7.186   3.333   9.381
19050SOL    HW261998   7.142   3.176   9.379
19051SOL     OW61999   6.050   3.605   9.633
19051SOL    HW162000   6.083   3.644   9.719
19051SOL    HW262001   6.126   3.598   9.568
19052SOL     OW62002   6.986   1.969   9.736
19052SOL    HW162003   6.962   1.932   9.646
19052SOL    HW262004   7.085   1.985   9.740
19053SOL     OW62005   5.968   2.562   9.790
19053SOL    HW162006   6.013   2.472   9.787
19053SOL    HW262007   5.874   2.551   9.823
19054SOL     OW62008   6.200   1.984   9.427
19054SOL    HW162009   6.298   1.962   9.434
19054SOL    HW262010   6.169   1.967   9.334
19055SOL     OW62011   6.125   1.926   9.822
19055SOL    HW162012   6.044   1.927   9.880
19055SOL    HW262013   6.128   2.009   9.767
19056SOL     OW62014   7.020   3.050   9.351
19056SOL    HW162015   7.052   2.974   9.408
19056SOL    HW262016   6.928   3.077   9.381
19057SOL     OW62017   5.883   1.897   9.481
19057SOL    HW162018   5.932   1.981   9.460
19057SOL    HW262019   5.945   1.832   9.526
19058SOL     OW62020   6.045   3.014  10.051
19058SOL    HW162021   5.974   2.987  10.116
19058SOL    HW262022   6.019   2.986   9.958
19059SOL     OW62023   6.618   2.411   9.326
19059SOL    HW162024   6.577   2.493   9.287
19059SOL    HW262025   6.682   2.437   9.399
19060SOL     OW62026   7.443   2.695   9.687
19060SOL    HW162027   7.485   2.631   9.751
19060SOL    HW262028   7.405   2.644   9.609
19061SOL     OW62029   6.074   3.247   9.484
19061SOL    HW162030   5.987   3.232   9.531
19061SOL    HW262031   6.057   3.273   9.389
19062SOL     OW62032   6.976   2.437   9.388
19062SOL    HW162033   6.922   2.416   9.469
19062SOL    HW262034   7.067   2.396   9.397
19063SOL     OW62035   6.113   2.118   9.638
19063SOL    HW162036   6.140   2.059   9.563
19063SOL    HW262037   6.113   2.213   9.607
19064SOL     OW62038   5.953   2.962   9.811
19064SOL    HW162039   5.946   3.045   9.755
19064SOL    HW262040   5.957   2.882   9.751
19065SOL     OW62041   7.168   2.501   9.782
19065SOL    HW162042   7.137   2.562   9.855
19065SOL    HW262043   7.218   2.553   9.713
19066SOL     OW62044   6.795   2.387   9.585
19066SOL    HW162045   6.808   2.303   9.639
19066SOL    HW262046   6.766   2.461   9.645
19067SOL     OW62047   5.893   1.925   9.928
19067SOL    HW162048   5.882   2.019   9.961
19067SOL    HW262049   5.888   1.862  10.005
19068SOL     OW62050   7.208   2.229   9.684
19068SOL    HW162051   7.210   2.153   9.748
19068SOL    HW262052   7.160   2.306   9.724
19069SOL     OW62053   7.126   2.136   9.435
19069SOL    HW162054   7.065   2.061   9.458
19069SOL    HW262055   7.148   2.188   9.518
19070SOL     OW62056   6.889   2.700   9.352
19070SOL    HW162057   6.923   2.607   9.367
19070SOL    HW262058   6.907   2.727   9.257
19071SOL     OW62059   5.594   3.188   9.510
19071SOL    HW162060   5.501   3.209   9.479
19071SOL    HW262061   5.604   3.089   9.523
19072SOL     OW62062   6.059   2.362   9.501
19072SOL    HW162063   6.120   2.442   9.505
19072SOL    HW262064   5.964   2.393   9.508
19073SOL     OW62065   6.888   2.717   9.619
19073SOL    HW162066   6.802   2.686   9.661
19073SOL    HW262067   6.884   2.703   9.520
19074SOL     OW62068   7.312   1.997   9.833
19074SOL    HW162069   7.385   1.980   9.766
19074SOL    HW262070   7.281   1.910   9.871
19075SOL     OW62071   6.258   3.478   9.464
19075SOL    HW162072   6.267   3.488   9.365
19075SOL    HW262073   6.218   3.389   9.485
19076SOL     OW62074   6.780   3.474   9.341
19076SOL    HW162075   6.786   3.381   9.378
19076SOL    HW262076   6.721   3.474   9.261
19077SOL     OW62077   7.090   3.469   9.354
19077SOL    HW162078   6.998   3.506   9.361
19077SOL    HW262079   7.128   3.489   9.264
19078SOL     OW62080   6.176   3.349   9.801
19078SOL    HW162081   6.218   3.291   9.731
19078SOL    HW262082   6.132   3.428   9.757
19079SOL     OW62083   5.841   3.210   9.600
19079SOL    HW162084   5.745   3.211   9.573
19079SOL    HW262085   5.853   3.263   9.684
19080SOL     OW62086   5.661   2.207   9.343
19080SOL    HW162087   5.569   2.179   9.314
19080SOL    HW262088   5.692   2.284   9.287
19081SOL     OW62089   5.658   2.028   9.628
19081SOL    HW162090   5.641   2.111   9.574
19081SOL    HW262091   5.748   1.991   9.606
19082SOL     OW62092   6.769   3.197   9.429
19082SOL    HW162093   6.670   3.186   9.431
19082SOL    HW262094   6.803   3.212   9.522
19083SOL     OW62095   6.811   2.187   9.759
19083SOL    HW162096   6.876   2.113   9.748
19083SOL    HW262097   6.831   2.237   9.843
19084SOL     OW62098   6.445   3.236   9.326
19084SOL    HW162099   6.399   3.251   9.414
19084SOL    HW262100   6.489   3.321   9.296
19085SOL     OW62101   6.669   2.846   9.397
19085SOL    HW162102   6.646   2.899   9.315
19085SOL    HW262103   6.750   2.790   9.378
19086SOL     OW62104   5.665   3.102   9.963
19086SOL    HW162105   5.664   3.055  10.051
19086SOL    HW262106   5.747   3.074   9.912
19087SOL     OW62107   6.014   2.286   9.830
19087SOL    HW162108   6.044   2.214   9.768
19087SOL    HW262109   5.975   2.246   9.913
19088SOL     OW62110   6.938   1.914   9.478
19088SOL    HW162111   6.973   1.873   9.394
19088SOL    HW262112   6.848   1.876   9.498
19089SOL     OW62113   5.625   2.939   9.610
19089SOL    HW162114   5.724   2.928   9.601
19089SOL    HW262115   5.585   2.853   9.642
19090SOL     OW62116   6.461   3.508   9.647
19090SOL    HW162117   6.384   3.473   9.593
19090SOL    HW262118   6.429   3.579   9.709
19091SOL     OW62119   5.816   4.352   0.113
19091SOL    HW162120   5.723   4.350   0.150
19091SOL    HW262121   5.817   4.313   0.021
19092SOL     OW62122   5.811   3.999   0.996
19092SOL    HW162123   5.846   3.982   1.088
19092SOL    HW262124   5.723   3.954   0.984
19093SOL     OW62125   5.605   4.092   0.647
19093SOL    HW162126   5.523   4.135   0.686
19093SOL    HW262127   5.577   4.019   0.584
19094SOL     OW62128   6.155   4.999   1.165
19094SOL    HW162129   6.062   4.992   1.128
19094SOL    HW262130   6.166   5.088   1.209
19095SOL     OW62131   7.141   5.235   0.703
19095SOL    HW162132   7.084   5.219   0.784
19095SOL    HW262133   7.082   5.245   0.623
19096SOL     OW62134   6.721   4.427   0.717
19096SOL    HW162135   6.778   4.505   0.692
19096SOL    HW262136   6.661   4.453   0.793
19097SOL     OW62137   7.341   4.331   0.231
19097SOL    HW162138   7.329   4.318   0.132
19097SOL    HW262139   7.311   4.250   0.280
19098SOL     OW62140   6.354   4.868   1.023
19098SOL    HW162141   6.276   4.885   1.083
19098SOL    HW262142   6.388   4.955   0.987
19099SOL     OW62143   6.436   4.522   1.823
19099SOL    HW162144   6.432   4.598   1.888
19099SOL    HW262145   6.458   4.558   1.732
19100SOL     OW62146   6.271   4.736   0.665
19100SOL    HW162147   6.340   4.720   0.735
19100SOL    HW262148   6.198   4.793   0.703
19101SOL     OW62149   6.272   4.885   1.803
19101SOL    HW162150   6.332   4.964   1.817
19101SOL    HW262151   6.186   4.916   1.762
19102SOL     OW62152   5.921   5.159   1.061
19102SOL    HW162153   5.843   5.128   1.008
19102SOL    HW262154   5.979   5.217   1.004
19103SOL     OW62155   7.046   5.229   1.339
19103SOL    HW162156   7.070   5.323   1.365
19103SOL    HW262157   7.030   5.175   1.421
19104SOL     OW62158   6.024   4.116   1.499
19104SOL    HW162159   6.106   4.060   1.508
19104SOL    HW262160   5.943   4.058   1.503
19105SOL     OW62161   7.189   4.171   0.737
19105SOL    HW162162   7.115   4.217   0.687
19105SOL    HW262163   7.240   4.239   0.790
19106SOL     OW62164   6.713   5.065   1.690
19106SOL    HW162165   6.760   5.065   1.778
19106SOL    HW262166   6.665   4.978   1.679
19107SOL     OW62167   5.816   5.158   0.538
19107SOL    HW162168   5.790   5.254   0.538
19107SOL    HW262169   5.745   5.104   0.583
19108SOL     OW62170   5.826   4.815   0.886
19108SOL    HW162171   5.840   4.731   0.938
19108SOL    HW262172   5.771   4.879   0.941
19109SOL     OW62173   6.206   5.510   1.439
19109SOL    HW162174   6.114   5.493   1.474
19109SOL    HW262175   6.234   5.602   1.465
19110SOL     OW62176   6.192   4.688   0.123
19110SOL    HW162177   6.199   4.772   0.069
19110SOL    HW262178   6.238   4.701   0.211
19111SOL     OW62179   7.180   3.838   1.480
19111SOL    HW162180   7.162   3.905   1.408
19111SOL    HW262181   7.177   3.884   1.569
19112SOL     OW62182   5.708   4.367   0.563
19112SOL    HW162183   5.663   4.279   0.580
19112SOL    HW262184   5.707   4.421   0.647
19113SOL     OW62185   7.428   5.491   0.359
19113SOL    HW162186   7.482   5.462   0.439
19113SOL    HW262187   7.458   5.581   0.330
19114SOL     OW62188   5.613   5.320   0.117
19114SOL    HW162189   5.594   5.224   0.138
19114SOL    HW262190   5.580   5.378   0.192
19115SOL     OW62191   7.275   4.646   0.612
19115SOL    HW162192   7.370   4.617   0.620
19115SOL    HW262193   7.267   4.711   0.537
19116SOL     OW62194   7.227   4.832   0.432
19116SOL    HW162195   7.313   4.834   0.380
19116SOL    HW262196   7.241   4.879   0.520
19117SOL     OW62197   5.699   4.461   1.597
19117SOL    HW162198   5.787   4.448   1.642
19117SOL    HW262199   5.686   4.558   1.575
19118SOL     OW62200   6.199   5.089   0.726
19118SOL    HW162201   6.150   5.002   0.735
19118SOL    HW262202   6.176   5.132   0.639
19119SOL     OW62203   6.879   4.952   1.423
19119SOL    HW162204   6.916   4.879   1.365
19119SOL    HW262205   6.931   4.957   1.508
19120SOL     OW62206   6.395   3.728   0.502
19120SOL    HW162207   6.435   3.819   0.493
19120SOL    HW262208   6.295   3.736   0.508
19121SOL     OW62209   5.783   4.700   1.264
19121SOL    HW162210   5.872   4.655   1.250
19121SOL    HW262211   5.710   4.635   1.245
19122SOL     OW62212   7.111   4.723   0.190
19122SOL    HW162213   7.048   4.647   0.203
19122SOL    HW262214   7.159   4.741   0.276
19123SOL     OW62215   6.773   5.516   1.616
19123SOL    HW162216   6.797   5.576   1.540
19123SOL    HW262217   6.780   5.421   1.586
19124SOL     OW62218   5.903   3.975   1.801
19124SOL    HW162219   5.974   4.046   1.807
19124SOL    HW262220   5.815   4.014   1.829
19125SOL     OW62221   7.052   5.141   0.953
19125SOL    HW162222   6.993   5.147   1.033
19125SOL    HW262223   7.037   5.053   0.907
19126SOL     OW62224   7.253   5.438   0.572
19126SOL    HW162225   7.212   5.415   0.484
19126SOL    HW262226   7.235   5.364   0.637
19127SOL     OW62227   6.184   4.453   0.270
19127SOL    HW162228   6.208   4.522   0.202
19127SOL    HW262229   6.106   4.486   0.324
19128SOL     OW62230   6.867   4.069   0.944
19128SOL    HW162231   6.781   4.019   0.931
19128SOL    HW262232   6.929   4.015   1.000
19129SOL     OW62233   7.162   5.386   0.307
19129SOL    HW162234   7.251   5.432   0.310
19129SOL    HW262235   7.141   5.362   0.212
19130SOL     OW62236   6.393   4.329   1.465
19130SOL    HW162237   6.346   4.326   1.554
19130SOL    HW262238   6.342   4.274   1.399
19131SOL     OW62239   6.980   4.193   1.674
19131SOL    HW162240   6.960   4.236   1.762
19131SOL    HW262241   7.058   4.131   1.683
19132SOL     OW62242   6.559   4.614   1.572
19132SOL    HW162243   6.605   4.530   1.543
19132SOL    HW262244   6.503   4.648   1.497
19133SOL     OW62245   6.577   4.134   1.242
19133SOL    HW162246   6.500   4.168   1.296
19133SOL    HW262247   6.543   4.083   1.163
19134SOL     OW62248   6.627   4.425   0.429
19134SOL    HW162249   6.653   4.421   0.525
19134SOL    HW262250   6.542   4.374   0.415
19135SOL     OW62251   5.662   4.535   0.789
19135SOL    HW162252   5.761   4.523   0.798
19135SOL    HW262253   5.638   4.630   0.810
19136SOL     OW62254   5.716   5.545   1.571
19136SOL    HW162255   5.706   5.530   1.670
19136SOL    HW262256   5.630   5.581   1.535
19137SOL     OW62257   6.451   4.072   0.195
19137SOL    HW162258   6.510   4.135   0.146
19137SOL    HW262259   6.470   3.978   0.166
19138SOL     OW62260   7.305   4.309   1.831
19138SOL    HW162261   7.279   4.398   1.795
19138SOL    HW262262   7.303   4.241   1.758
19139SOL     OW62263   6.948   4.868   0.545
19139SOL    HW162264   7.031   4.839   0.497
19139SOL    HW262265   6.899   4.935   0.489
19140SOL     OW62266   6.136   3.920   0.885
19140SOL    HW162267   6.131   3.915   0.985
19140SOL    HW262268   6.138   4.016   0.856
19141SOL     OW62269   7.381   4.790   0.873
19141SOL    HW162270   7.319   4.775   0.797
19141SOL    HW262271   7.329   4.801   0.958
19142SOL     OW62272   6.813   5.274   1.506
19142SOL    HW162273   6.819   5.197   1.570
19142SOL    HW262274   6.761   5.248   1.426
19143SOL     OW62275   5.907   4.667   0.242
19143SOL    HW162276   5.989   4.706   0.200
19143SOL    HW262277   5.880   4.585   0.193
19144SOL     OW62278   7.044   4.459   0.728
19144SOL    HW162279   7.039   4.394   0.803
19144SOL    HW262280   7.124   4.518   0.741
19145SOL     OW62281   6.047   4.990   1.727
19145SOL    HW162282   5.997   4.991   1.641
19145SOL    HW262283   5.984   4.972   1.803
19146SOL     OW62284   6.697   5.500   0.237
19146SOL    HW162285   6.637   5.438   0.287
19146SOL    HW262286   6.728   5.456   0.152
19147SOL     OW62287   5.788   4.009   1.498
19147SOL    HW162288   5.708   4.069   1.485
19147SOL    HW262289   5.778   3.960   1.584
19148SOL     OW62290   7.218   5.101   0.081
19148SOL    HW162291   7.186   5.195   0.071
19148SOL    HW262292   7.142   5.038   0.069
19149SOL     OW62293   6.050   5.467   0.323
19149SOL    HW162294   6.083   5.506   0.409
19149SOL    HW262295   6.126   5.460   0.258
19150SOL     OW62296   6.986   3.831   0.426
19150SOL    HW162297   6.962   3.794   0.336
19150SOL    HW262298   7.085   3.847   0.430
19151SOL     OW62299   5.835   5.509   1.241
19151SOL    HW162300   5.892   5.444   1.291
19151SOL    HW262301   5.819   5.476   1.148
19152SOL     OW62302   6.526   5.422   0.904
19152SOL    HW162303   6.606   5.365   0.925
19152SOL    HW262304   6.477   5.382   0.827
19153SOL     OW62305   5.968   4.424   0.480
19153SOL    HW162306   6.013   4.334   0.477
19153SOL    HW262307   5.874   4.413   0.513
19154SOL     OW62308   7.133   3.946   1.729
19154SOL    HW162309   7.128   3.983   1.821
19154SOL    HW262310   7.061   3.877   1.717
19155SOL     OW62311   6.200   3.846   0.117
19155SOL    HW162312   6.298   3.824   0.124
19155SOL    HW262313   6.169   3.829   0.024
19156SOL     OW62314   6.367   3.988   1.749
19156SOL    HW162315   6.434   3.927   1.792
19156SOL    HW262316   6.294   4.007   1.814
19157SOL     OW62317   6.474   5.238   1.195
19157SOL    HW162318   6.451   5.213   1.101
19157SOL    HW262319   6.535   5.169   1.234
19158SOL     OW62320   6.937   4.314   1.433
19158SOL    HW162321   6.965   4.271   1.518
19158SOL    HW262322   6.962   4.410   1.434
19159SOL     OW62323   6.389   5.126   0.924
19159SOL    HW162324   6.479   5.140   0.882
19159SOL    HW262325   6.318   5.128   0.853
19160SOL     OW62326   6.508   4.227   0.899
19160SOL    HW162327   6.483   4.218   0.803
19160SOL    HW262328   6.556   4.145   0.930
19161SOL     OW62329   6.125   3.788   0.512
19161SOL    HW162330   6.044   3.789   0.570
19161SOL    HW262331   6.128   3.871   0.457
19162SOL     OW62332   7.020   4.912   0.041
19162SOL    HW162333   7.052   4.836   0.098
19162SOL    HW262334   6.928   4.939   0.071
19163SOL     OW62335   6.521   3.960   0.480
19163SOL    HW162336   6.473   4.001   0.402
19163SOL    HW262337   6.620   3.958   0.461
19164SOL     OW62338   6.662   4.407   1.464
19164SOL    HW162339   6.582   4.346   1.467
19164SOL    HW262340   6.743   4.354   1.440
19165SOL     OW62341   6.813   5.294   0.793
19165SOL    HW162342   6.834   5.368   0.728
19165SOL    HW262343   6.881   5.294   0.866
19166SOL     OW62344   6.045   4.876   0.741
19166SOL    HW162345   5.974   4.849   0.806
19166SOL    HW262346   6.019   4.848   0.648
19167SOL     OW62347   6.857   5.521   0.591
19167SOL    HW162348   6.901   5.585   0.527
19167SOL    HW262349   6.807   5.573   0.661
19168SOL     OW62350   6.618   4.273   0.016
19168SOL    HW162351   6.577   4.355  -0.023
19168SOL    HW262352   6.682   4.299   0.089
19169SOL     OW62353   5.664   4.280   1.386
19169SOL    HW162354   5.756   4.279   1.345
19169SOL    HW262355   5.658   4.354   1.453
19170SOL     OW62356   6.147   3.946   1.147
19170SOL    HW162357   6.185   3.862   1.184
19170SOL    HW262358   6.059   3.965   1.191
19171SOL     OW62359   6.452   4.178   0.642
19171SOL    HW162360   6.420   4.250   0.580
19171SOL    HW262361   6.476   4.097   0.589
19172SOL     OW62362   6.603   3.763   0.753
19172SOL    HW162363   6.531   3.768   0.684
19172SOL    HW262364   6.579   3.694   0.822
19173SOL     OW62365   7.015   4.897   0.867
19173SOL    HW162366   6.960   4.813   0.860
19173SOL    HW262367   7.041   4.926   0.775
19174SOL     OW62368   7.052   4.314   0.992
19174SOL    HW162369   7.022   4.219   0.999
19174SOL    HW262370   7.125   4.330   1.058
19175SOL     OW62371   7.443   4.557   0.377
19175SOL    HW162372   7.485   4.493   0.441
19175SOL    HW262373   7.405   4.506   0.299
19176SOL     OW62374   6.074   5.109   0.174
19176SOL    HW162375   5.987   5.094   0.221
19176SOL    HW262376   6.057   5.135   0.079
19177SOL     OW62377   7.250   5.004   0.657
19177SOL    HW162378   7.349   5.012   0.671
19177SOL    HW262379   7.205   5.088   0.688
19178SOL     OW62380   6.976   4.299   0.078
19178SOL    HW162381   6.922   4.278   0.159
19178SOL    HW262382   7.067   4.258   0.087
19179SOL     OW62383   6.113   3.980   0.328
19179SOL    HW162384   6.140   3.921   0.253
19179SOL    HW262385   6.113   4.075   0.297
19180SOL     OW62386   7.340   4.947   1.588
19180SOL    HW162387   7.431   4.908   1.575
19180SOL    HW262388   7.348   5.043   1.612
19181SOL     OW62389   6.650   5.071   1.340
19181SOL    HW162390   6.570   5.048   1.395
19181SOL    HW262391   6.733   5.045   1.389
19182SOL     OW62392   7.178   5.353   1.625
19182SOL    HW162393   7.205   5.387   1.535
19182SOL    HW262394   7.257   5.315   1.671
19183SOL     OW62395   6.697   4.919   1.100
19183SOL    HW162396   6.657   4.963   1.181
19183SOL    HW262397   6.656   4.956   1.017
19184SOL     OW62398   7.224   4.823   1.079
19184SOL    HW162399   7.229   4.904   1.138
19184SOL    HW262400   7.138   4.825   1.028
19185SOL     OW62401   6.501   3.813   1.402
19185SOL    HW162402   6.526   3.793   1.307
19185SOL    HW262403   6.573   3.869   1.444
19186SOL     OW62404   6.566   4.840   1.719
19186SOL    HW162405   6.467   4.846   1.729
19186SOL    HW262406   6.589   4.760   1.663
19187SOL     OW62407   6.291   4.774   0.368
19187SOL    HW162408   6.277   4.781   0.467
19187SOL    HW262409   6.375   4.723   0.350
19188SOL     OW62410   6.860   4.110   1.262
19188SOL    HW162411   6.881   4.184   1.326
19188SOL    HW262412   6.771   4.127   1.219
19189SOL     OW62413   5.650   5.288   1.331
19189SOL    HW162414   5.604   5.370   1.297
19189SOL    HW262415   5.748   5.307   1.340
19190SOL     OW62416   5.953   4.824   0.501
19190SOL    HW162417   5.946   4.907   0.445
19190SOL    HW262418   5.957   4.744   0.441
19191SOL     OW62419   6.152   4.261   0.865
19191SOL    HW162420   6.164   4.327   0.791
19191SOL    HW262421   6.198   4.295   0.948
19192SOL     OW62422   6.838   5.072   0.388
19192SOL    HW162423   6.888   5.149   0.428
19192SOL    HW262424   6.743   5.074   0.420
19193SOL     OW62425   6.858   5.169   1.142
19193SOL    HW162426   6.905   5.182   1.229
19193SOL    HW262427   6.792   5.095   1.151
19194SOL     OW62428   7.168   4.363   0.472
19194SOL    HW162429   7.137   4.424   0.545
19194SOL    HW262430   7.218   4.415   0.403
19195SOL     OW62431   5.940   5.234   1.329
19195SOL    HW162432   5.919   5.190   1.242
19195SOL    HW262433   6.037   5.260   1.332
19196SOL     OW62434   5.988   4.475   1.598
19196SOL    HW162435   6.056   4.530   1.551
19196SOL    HW262436   6.028   4.387   1.625
19197SOL     OW62437   7.173   4.503   1.670
19197SOL    HW162438   7.081   4.541   1.665
19197SOL    HW262439   7.233   4.550   1.605
19198SOL     OW62440   6.599   3.829   1.770
19198SOL    HW162441   6.605   3.914   1.718
19198SOL    HW262442   6.631   3.753   1.713
19199SOL     OW62443   6.090   3.774   1.740
19199SOL    HW162444   6.048   3.717   1.670
19199SOL    HW262445   6.024   3.843   1.772
19200SOL     OW62446   6.159   4.594   1.029
19200SOL    HW162447   6.203   4.683   1.020
19200SOL    HW262448   6.096   4.594   1.106
19201SOL     OW62449   6.946   4.586   1.045
19201SOL    HW162450   6.871   4.586   0.979
19201SOL    HW262451   6.983   4.494   1.054
19202SOL     OW62452   6.795   4.249   0.275
19202SOL    HW162453   6.808   4.165   0.329
19202SOL    HW262454   6.766   4.323   0.335
19203SOL     OW62455   5.893   3.937   1.231
19203SOL    HW162456   5.870   3.974   1.321
19203SOL    HW262457   5.863   3.842   1.225
19204SOL     OW62458   5.623   5.034   1.282
19204SOL    HW162459   5.676   4.985   1.350
19204SOL    HW262460   5.645   5.132   1.287
19205SOL     OW62461   6.318   4.358   1.064
19205SOL    HW162462   6.377   4.332   0.988
19205SOL    HW262463   6.290   4.454   1.053
19206SOL     OW62464   7.314   4.659   1.854
19206SOL    HW162465   7.268   4.652   1.765
19206SOL    HW262466   7.252   4.703   1.920
19207SOL     OW62467   5.893   3.787   0.618
19207SOL    HW162468   5.882   3.881   0.651
19207SOL    HW262469   5.888   3.724   0.695
19208SOL     OW62470   7.208   4.091   0.374
19208SOL    HW162471   7.210   4.015   0.438
19208SOL    HW262472   7.160   4.168   0.414
19209SOL     OW62473   6.609   4.490   0.966
19209SOL    HW162474   6.624   4.511   1.062
19209SOL    HW262475   6.579   4.395   0.957
19210SOL     OW62476   6.566   5.297   1.700
19210SOL    HW162477   6.546   5.341   1.612
19210SOL    HW262478   6.605   5.206   1.684
19211SOL     OW62479   7.445   5.242   1.605
19211SOL    HW162480   7.459   5.269   1.510
19211SOL    HW262481   7.528   5.264   1.658
19212SOL     OW62482   5.936   4.622   1.804
19212SOL    HW162483   6.012   4.666   1.852
19212SOL    HW262484   5.971   4.575   1.722
19213SOL     OW62485   7.126   3.998   0.125
19213SOL    HW162486   7.065   3.923   0.148
19213SOL    HW262487   7.148   4.050   0.208
19214SOL     OW62488   6.889   4.562   0.042
19214SOL    HW162489   6.923   4.469   0.057
19214SOL    HW262490   6.907   4.589  -0.053
19215SOL     OW62491   6.654   5.057   0.849
19215SOL    HW162492   6.661   4.973   0.794
19215SOL    HW262493   6.716   5.126   0.813
19216SOL     OW62494   5.905   4.534   0.949
19216SOL    HW162495   5.998   4.570   0.954
19216SOL    HW262496   5.899   4.449   1.001
19217SOL     OW62497   5.925   4.233   1.006
19217SOL    HW162498   5.873   4.150   0.989
19217SOL    HW262499   6.002   4.238   0.942
19218SOL     OW62500   6.724   4.104   1.678
19218SOL    HW162501   6.679   4.167   1.742
19218SOL    HW262502   6.817   4.135   1.661
19219SOL     OW62503   6.746   3.931   1.477
19219SOL    HW162504   6.746   3.995   1.554
19219SOL    HW262505   6.774   3.979   1.394
19220SOL     OW62506   5.594   5.050   0.200
19220SOL    HW162507   5.501   5.071   0.169
19220SOL    HW262508   5.604   4.951   0.213
19221SOL     OW62509   5.674   5.525   0.927
19221SOL    HW162510   5.632   5.439   0.900
19221SOL    HW262511   5.768   5.528   0.893
19222SOL     OW62512   6.588   4.520   1.238
19222SOL    HW162513   6.629   4.488   1.324
19222SOL    HW262514   6.492   4.493   1.235
19223SOL     OW62515   5.626   4.268   1.114
19223SOL    HW162516   5.711   4.235   1.073
19223SOL    HW262517   5.639   4.283   1.212
19224SOL     OW62518   5.775   4.244   1.722
19224SOL    HW162519   5.834   4.204   1.652
19224SOL    HW262520   5.717   4.315   1.681
19225SOL     OW62521   6.955   4.674   1.660
19225SOL    HW162522   6.994   4.763   1.680
19225SOL    HW262523   6.965   4.654   1.563
19226SOL     OW62524   6.401   4.296   0.325
19226SOL    HW162525   6.408   4.207   0.279
19226SOL    HW262526   6.307   4.330   0.317
19227SOL     OW62527   5.838   5.288   1.744
19227SOL    HW162528   5.808   5.345   1.820
19227SOL    HW262529   5.831   5.191   1.770
19228SOL     OW62530   6.257   4.188   1.269
19228SOL    HW162531   6.223   4.099   1.239
19228SOL    HW262532   6.283   4.242   1.189
19229SOL     OW62533   6.516   5.402   1.465
19229SOL    HW162534   6.492   5.384   1.370
19229SOL    HW262535   6.546   5.496   1.475
19230SOL     OW62536   6.059   4.224   0.191
19230SOL    HW162537   6.120   4.304   0.195
19230SOL    HW262538   5.964   4.255   0.198
19231SOL     OW62539   5.745   4.861   1.466
19231SOL    HW162540   5.767   4.800   1.542
19231SOL    HW262541   5.755   4.812   1.380
19232SOL     OW62542   6.933   4.783   1.234
19232SOL    HW162543   6.957   4.720   1.160
19232SOL    HW262544   6.843   4.823   1.216
19233SOL     OW62545   6.888   4.579   0.309
19233SOL    HW162546   6.802   4.548   0.351
19233SOL    HW262547   6.884   4.565   0.210
19234SOL     OW62548   7.345   5.471   1.154
19234SOL    HW162549   7.406   5.501   1.081
19234SOL    HW262550   7.307   5.382   1.132
19235SOL     OW62551   6.838   5.455   1.128
19235SOL    HW162552   6.922   5.460   1.074
19235SOL    HW262553   6.815   5.359   1.146
19236SOL     OW62554   5.669   4.982   1.022
19236SOL    HW162555   5.664   4.981   1.122
19236SOL    HW262556   5.586   4.941   0.984
19237SOL     OW62557   6.274   5.386   1.716
19237SOL    HW162558   6.218   5.467   1.725
19237SOL    HW262559   6.326   5.390   1.630
19238SOL     OW62560   6.489   3.810   0.133
19238SOL    HW162561   6.540   3.811   0.047
19238SOL    HW262562   6.545   3.768   0.204
19239SOL     OW62563   7.312   3.859   0.523
19239SOL    HW162564   7.385   3.842   0.456
19239SOL    HW262565   7.281   3.772   0.561
19240SOL     OW62566   6.974   5.297   0.477
19240SOL    HW162567   7.041   5.309   0.403
19240SOL    HW262568   6.934   5.386   0.500
19241SOL     OW62569   5.716   5.518   1.851
19241SOL    HW162570   5.675   5.444   1.904
19241SOL    HW262571   5.780   5.569   1.909
19242SOL     OW62572   6.866   4.651   0.672
19242SOL    HW162573   6.926   4.570   0.674
19242SOL    HW262574   6.906   4.720   0.612
19243SOL     OW62575   6.416   4.997   1.422
19243SOL    HW162576   6.411   5.030   1.517
19243SOL    HW262577   6.330   5.016   1.376
19244SOL     OW62578   6.258   5.340   0.154
19244SOL    HW162579   6.267   5.350   0.055
19244SOL    HW262580   6.218   5.251   0.175
19245SOL     OW62581   7.236   5.444   1.394
19245SOL    HW162582   7.289   5.454   1.310
19245SOL    HW262583   7.209   5.534   1.428
19246SOL     OW62584   7.427   3.899   0.963
19246SOL    HW162585   7.466   3.814   0.927
19246SOL    HW262586   7.329   3.901   0.944
19247SOL     OW62587   5.849   4.050   0.720
19247SOL    HW162588   5.770   4.101   0.686
19247SOL    HW262589   5.840   4.035   0.818
19248SOL     OW62590   6.780   5.336   0.031
19248SOL    HW162591   6.786   5.243   0.068
19248SOL    HW262592   6.721   5.336  -0.049
19249SOL     OW62593   6.408   4.726   1.372
19249SOL    HW162594   6.448   4.725   1.280
19249SOL    HW262595   6.418   4.818   1.412
19250SOL     OW62596   6.502   4.634   0.291
19250SOL    HW162597   6.565   4.672   0.223
19250SOL    HW262598   6.542   4.551   0.330
19251SOL     OW62599   7.090   5.331   0.044
19251SOL    HW162600   6.998   5.368   0.051
19251SOL    HW262601   7.128   5.351  -0.046
19252SOL     OW62602   5.958   5.012   1.490
19252SOL    HW162603   5.945   5.105   1.456
19252SOL    HW262604   5.874   4.960   1.477
19253SOL     OW62605   7.200   5.016   1.289
19253SOL    HW162606   7.260   5.019   1.369
19253SOL    HW262607   7.125   5.080   1.302
19254SOL     OW62608   6.625   4.822   0.696
19254SOL    HW162609   6.555   4.775   0.750
19254SOL    HW262610   6.684   4.754   0.653
19255SOL     OW62611   6.600   3.960   0.971
19255SOL    HW162612   6.592   3.924   0.878
19255SOL    HW262613   6.598   3.884   1.036
19256SOL     OW62614   6.176   5.211   0.491
19256SOL    HW162615   6.218   5.153   0.421
19256SOL    HW262616   6.132   5.290   0.447
19257SOL     OW62617   7.295   4.109   1.381
19257SOL    HW162618   7.368   4.178   1.385
19257SOL    HW262619   7.323   4.034   1.322
19258SOL     OW62620   5.841   5.072   0.290
19258SOL    HW162621   5.745   5.073   0.263
19258SOL    HW262622   5.853   5.125   0.374
19259SOL     OW62623   5.691   4.737   1.726
19259SOL    HW162624   5.614   4.704   1.780
19259SOL    HW262625   5.776   4.707   1.768
19260SOL     OW62626   6.258   3.927   1.489
19260SOL    HW162627   6.348   3.911   1.449
19260SOL    HW262628   6.266   3.932   1.588
19261SOL     OW62629   5.661   4.069   0.033
19261SOL    HW162630   5.569   4.041   0.004
19261SOL    HW262631   5.692   4.146  -0.023
19262SOL     OW62632   7.026   4.580   1.398
19262SOL    HW162633   6.969   4.632   1.335
19262SOL    HW262634   7.122   4.592   1.374
19263SOL     OW62635   5.658   3.890   0.318
19263SOL    HW162636   5.641   3.973   0.264
19263SOL    HW262637   5.748   3.853   0.296
19264SOL     OW62638   6.769   5.059   0.119
19264SOL    HW162639   6.670   5.048   0.121
19264SOL    HW262640   6.803   5.074   0.212
19265SOL     OW62641   6.199   4.566   1.431
19265SOL    HW162642   6.255   4.647   1.414
19265SOL    HW262643   6.258   4.486   1.434
19266SOL     OW62644   7.079   5.491   0.959
19266SOL    HW162645   7.112   5.555   0.890
19266SOL    HW262646   7.145   5.485   1.034
19267SOL     OW62647   6.302   4.289   1.708
19267SOL    HW162648   6.321   4.354   1.782
19267SOL    HW262649   6.362   4.209   1.717
19268SOL     OW62650   7.036   4.944   1.633
19268SOL    HW162651   7.027   4.934   1.732
19268SOL    HW262652   7.132   4.937   1.607
19269SOL     OW62653   5.976   5.465   1.560
19269SOL    HW162654   5.885   5.506   1.558
19269SOL    HW262655   5.969   5.371   1.592
19270SOL     OW62656   7.260   4.607   1.254
19270SOL    HW162657   7.233   4.518   1.217
19270SOL    HW262658   7.261   4.675   1.181
19271SOL     OW62659   6.811   4.049   0.449
19271SOL    HW162660   6.876   3.975   0.438
19271SOL    HW262661   6.831   4.099   0.533
19272SOL     OW62662   6.180   4.469   0.652
19272SOL    HW162663   6.230   4.554   0.633
19272SOL    HW262664   6.092   4.471   0.604
19273SOL     OW62665   7.363   4.066   1.642
19273SOL    HW162666   7.346   4.097   1.548
19273SOL    HW262667   7.279   4.029   1.680
19274SOL     OW62668   7.316   4.658   1.517
19274SOL    HW162669   7.354   4.749   1.532
19274SOL    HW262670   7.308   4.641   1.418
19275SOL     OW62671   6.445   5.098   0.016
19275SOL    HW162672   6.399   5.113   0.104
19275SOL    HW262673   6.489   5.183  -0.014
19276SOL     OW62674   6.445   4.680   0.861
19276SOL    HW162675   6.499   4.611   0.909
19276SOL    HW262676   6.413   4.749   0.927
19277SOL     OW62677   6.669   4.708   0.087
19277SOL    HW162678   6.646   4.761   0.005
19277SOL    HW262679   6.750   4.652   0.068
19278SOL     OW62680   7.447   5.293   0.851
19278SOL    HW162681   7.376   5.281   0.781
19278SOL    HW262682   7.448   5.214   0.911
19279SOL     OW62683   5.807   5.038   1.844
19279SOL    HW162684   5.742   4.965   1.823
19279SOL    HW262685   5.811   5.052   1.942
19280SOL     OW62686   5.665   4.964   0.653
19280SOL    HW162687   5.664   4.917   0.741
19280SOL    HW262688   5.747   4.936   0.602
19281SOL     OW62689   6.258   5.115   1.624
19281SOL    HW162690   6.180   5.065   1.662
19281SOL    HW262691   6.255   5.210   1.655
19282SOL     OW62692   7.410   3.916   1.227
19282SOL    HW162693   7.406   3.826   1.271
19282SOL    HW262694   7.413   3.905   1.128
19283SOL     OW62695   6.014   4.148   0.520
19283SOL    HW162696   6.044   4.076   0.458
19283SOL    HW262697   5.975   4.108   0.603
19284SOL     OW62698   7.291   5.211   1.104
19284SOL    HW162699   7.198   5.186   1.077
19284SOL    HW262700   7.317   5.161   1.186
19285SOL     OW62701   5.903   4.271   1.280
19285SOL    HW162702   5.941   4.212   1.352
19285SOL    HW262703   5.943   4.245   1.192
19286SOL     OW62704   7.010   3.938   1.112
19286SOL    HW162705   7.062   3.873   1.167
19286SOL    HW262706   6.961   4.001   1.173
19287SOL     OW62707   6.587   3.758   1.154
19287SOL    HW162708   6.524   3.686   1.123
19287SOL    HW262709   6.680   3.722   1.154
19288SOL     OW62710   6.204   5.291   1.284
19288SOL    HW162711   6.199   5.373   1.341
19288SOL    HW262712   6.293   5.288   1.239
19289SOL     OW62713   6.938   3.776   0.168
19289SOL    HW162714   6.973   3.735   0.084
19289SOL    HW262715   6.848   3.738   0.188
19290SOL     OW62716   6.886   4.177   0.691
19290SOL    HW162717   6.827   4.257   0.695
19290SOL    HW262718   6.901   4.142   0.784
19291SOL     OW62719   7.179   3.945   0.882
19291SOL    HW162720   7.095   3.944   0.936
19291SOL    HW262721   7.181   4.028   0.826
19292SOL     OW62722   5.625   4.801   0.300
19292SOL    HW162723   5.724   4.790   0.291
19292SOL    HW262724   5.585   4.715   0.332
19293SOL     OW62725   5.816   4.352   1.975
19293SOL    HW162726   5.723   4.350   2.012
19293SOL    HW262727   5.817   4.313   1.883
19294SOL     OW62728   5.811   3.999   2.858
19294SOL    HW162729   5.846   3.982   2.950
19294SOL    HW262730   5.723   3.954   2.846
19295SOL     OW62731   5.605   4.092   2.509
19295SOL    HW162732   5.523   4.135   2.548
19295SOL    HW262733   5.577   4.019   2.446
19296SOL     OW62734   6.155   4.999   3.027
19296SOL    HW162735   6.062   4.992   2.990
19296SOL    HW262736   6.166   5.088   3.071
19297SOL     OW62737   7.141   5.235   2.565
19297SOL    HW162738   7.084   5.219   2.646
19297SOL    HW262739   7.082   5.245   2.485
19298SOL     OW62740   6.721   4.427   2.579
19298SOL    HW162741   6.778   4.505   2.554
19298SOL    HW262742   6.661   4.453   2.655
19299SOL     OW62743   7.341   4.331   2.093
19299SOL    HW162744   7.329   4.318   1.994
19299SOL    HW262745   7.311   4.250   2.142
19300SOL     OW62746   6.354   4.868   2.885
19300SOL    HW162747   6.276   4.885   2.945
19300SOL    HW262748   6.388   4.955   2.849
19301SOL     OW62749   6.436   4.522   3.685
19301SOL    HW162750   6.432   4.598   3.750
19301SOL    HW262751   6.458   4.558   3.594
19302SOL     OW62752   6.271   4.736   2.527
19302SOL    HW162753   6.340   4.720   2.597
19302SOL    HW262754   6.198   4.793   2.565
19303SOL     OW62755   6.272   4.885   3.665
19303SOL    HW162756   6.332   4.964   3.679
19303SOL    HW262757   6.186   4.916   3.624
19304SOL     OW62758   5.921   5.159   2.923
19304SOL    HW162759   5.843   5.128   2.870
19304SOL    HW262760   5.979   5.217   2.866
19305SOL     OW62761   7.046   5.229   3.201
19305SOL    HW162762   7.070   5.323   3.227
19305SOL    HW262763   7.030   5.175   3.283
19306SOL     OW62764   6.024   4.116   3.361
19306SOL    HW162765   6.106   4.060   3.370
19306SOL    HW262766   5.943   4.058   3.365
19307SOL     OW62767   7.189   4.171   2.599
19307SOL    HW162768   7.115   4.217   2.549
19307SOL    HW262769   7.240   4.239   2.652
19308SOL     OW62770   5.817   5.437   2.345
19308SOL    HW162771   5.851   5.514   2.399
19308SOL    HW262772   5.861   5.437   2.255
19309SOL     OW62773   6.713   5.065   3.552
19309SOL    HW162774   6.760   5.065   3.640
19309SOL    HW262775   6.665   4.978   3.541
19310SOL     OW62776   5.816   5.158   2.400
19310SOL    HW162777   5.790   5.254   2.400
19310SOL    HW262778   5.745   5.104   2.445
19311SOL     OW62779   5.826   4.815   2.748
19311SOL    HW162780   5.840   4.731   2.800
19311SOL    HW262781   5.771   4.879   2.803
19312SOL     OW62782   6.206   5.510   3.301
19312SOL    HW162783   6.114   5.493   3.336
19312SOL    HW262784   6.234   5.602   3.327
19313SOL     OW62785   6.192   4.688   1.985
19313SOL    HW162786   6.199   4.772   1.931
19313SOL    HW262787   6.238   4.701   2.073
19314SOL     OW62788   7.180   3.838   3.342
19314SOL    HW162789   7.162   3.905   3.270
19314SOL    HW262790   7.177   3.884   3.431
19315SOL     OW62791   5.708   4.367   2.425
19315SOL    HW162792   5.663   4.279   2.442
19315SOL    HW262793   5.707   4.421   2.509
19316SOL     OW62794   7.428   5.491   2.221
19316SOL    HW162795   7.482   5.462   2.301
19316SOL    HW262796   7.458   5.581   2.192
19317SOL     OW62797   5.613   5.320   1.979
19317SOL    HW162798   5.594   5.224   2.000
19317SOL    HW262799   5.580   5.378   2.054
19318SOL     OW62800   7.275   4.646   2.474
19318SOL    HW162801   7.370   4.617   2.482
19318SOL    HW262802   7.267   4.711   2.399
19319SOL     OW62803   7.227   4.832   2.294
19319SOL    HW162804   7.313   4.834   2.242
19319SOL    HW262805   7.241   4.879   2.382
19320SOL     OW62806   5.699   4.461   3.459
19320SOL    HW162807   5.787   4.448   3.504
19320SOL    HW262808   5.686   4.558   3.437
19321SOL     OW62809   6.199   5.089   2.588
19321SOL    HW162810   6.150   5.002   2.597
19321SOL    HW262811   6.176   5.132   2.501
19322SOL     OW62812   6.879   4.952   3.285
19322SOL    HW162813   6.916   4.879   3.227
19322SOL    HW262814   6.931   4.957   3.370
19323SOL     OW62815   6.395   3.728   2.364
19323SOL    HW162816   6.435   3.819   2.355
19323SOL    HW262817   6.295   3.736   2.370
19324SOL     OW62818   5.783   4.700   3.126
19324SOL    HW162819   5.872   4.655   3.112
19324SOL    HW262820   5.710   4.635   3.107
19325SOL     OW62821   7.111   4.723   2.052
19325SOL    HW162822   7.048   4.647   2.065
19325SOL    HW262823   7.159   4.741   2.138
19326SOL     OW62824   6.773   5.516   3.478
19326SOL    HW162825   6.797   5.576   3.402
19326SOL    HW262826   6.780   5.421   3.448
19327SOL     OW62827   5.903   3.975   3.663
19327SOL    HW162828   5.974   4.046   3.669
19327SOL    HW262829   5.815   4.014   3.691
19328SOL     OW62830   7.052   5.141   2.815
19328SOL    HW162831   6.993   5.147   2.895
19328SOL    HW262832   7.037   5.053   2.769
19329SOL     OW62833   7.253   5.438   2.434
19329SOL    HW162834   7.212   5.415   2.346
19329SOL    HW262835   7.235   5.364   2.499
19330SOL     OW62836   6.184   4.453   2.132
19330SOL    HW162837   6.208   4.522   2.064
19330SOL    HW262838   6.106   4.486   2.186
19331SOL     OW62839   6.867   4.069   2.806
19331SOL    HW162840   6.781   4.019   2.793
19331SOL    HW262841   6.929   4.015   2.862
19332SOL     OW62842   7.162   5.386   2.169
19332SOL    HW162843   7.251   5.432   2.172
19332SOL    HW262844   7.141   5.362   2.074
19333SOL     OW62845   6.393   4.329   3.327
19333SOL    HW162846   6.346   4.326   3.416
19333SOL    HW262847   6.342   4.274   3.261
19334SOL     OW62848   6.980   4.193   3.536
19334SOL    HW162849   6.960   4.236   3.624
19334SOL    HW262850   7.058   4.131   3.545
19335SOL     OW62851   6.559   4.614   3.434
19335SOL    HW162852   6.605   4.530   3.405
19335SOL    HW262853   6.503   4.648   3.359
19336SOL     OW62854   6.577   4.134   3.104
19336SOL    HW162855   6.500   4.168   3.158
19336SOL    HW262856   6.543   4.083   3.025
19337SOL     OW62857   6.627   4.425   2.291
19337SOL    HW162858   6.653   4.421   2.387
19337SOL    HW262859   6.542   4.374   2.277
19338SOL     OW62860   5.662   4.535   2.651
19338SOL    HW162861   5.761   4.523   2.660
19338SOL    HW262862   5.638   4.630   2.672
19339SOL     OW62863   5.716   5.545   3.433
19339SOL    HW162864   5.706   5.530   3.532
19339SOL    HW262865   5.630   5.581   3.397
19340SOL     OW62866   6.451   4.072   2.057
19340SOL    HW162867   6.510   4.135   2.008
19340SOL    HW262868   6.470   3.978   2.028
19341SOL     OW62869   7.305   4.309   3.693
19341SOL    HW162870   7.279   4.398   3.657
19341SOL    HW262871   7.303   4.241   3.620
19342SOL     OW62872   6.948   4.868   2.407
19342SOL    HW162873   7.031   4.839   2.359
19342SOL    HW262874   6.899   4.935   2.351
19343SOL     OW62875   6.594   5.180   2.339
19343SOL    HW162876   6.548   5.252   2.287
19343SOL    HW262877   6.590   5.200   2.437
19344SOL     OW62878   5.937   5.525   2.715
19344SOL    HW162879   5.987   5.439   2.721
19344SOL    HW262880   6.002   5.602   2.712
19345SOL     OW62881   7.381   4.790   2.735
19345SOL    HW162882   7.319   4.775   2.659
19345SOL    HW262883   7.329   4.801   2.820
19346SOL     OW62884   6.813   5.274   3.368
19346SOL    HW162885   6.819   5.197   3.432
19346SOL    HW262886   6.761   5.248   3.288
19347SOL     OW62887   5.907   4.667   2.104
19347SOL    HW162888   5.989   4.706   2.062
19347SOL    HW262889   5.880   4.585   2.055
19348SOL     OW62890   7.044   4.459   2.590
19348SOL    HW162891   7.039   4.394   2.665
19348SOL    HW262892   7.124   4.518   2.603
19349SOL     OW62893   6.047   4.990   3.589
19349SOL    HW162894   5.997   4.991   3.503
19349SOL    HW262895   5.984   4.972   3.665
19350SOL     OW62896   6.697   5.500   2.099
19350SOL    HW162897   6.637   5.438   2.149
19350SOL    HW262898   6.728   5.456   2.014
19351SOL     OW62899   5.788   4.009   3.360
19351SOL    HW162900   5.708   4.069   3.347
19351SOL    HW262901   5.778   3.960   3.446
19352SOL     OW62902   7.218   5.101   1.943
19352SOL    HW162903   7.186   5.195   1.933
19352SOL    HW262904   7.142   5.038   1.931
19353SOL     OW62905   6.050   5.467   2.185
19353SOL    HW162906   6.083   5.506   2.271
19353SOL    HW262907   6.126   5.460   2.120
19354SOL     OW62908   6.986   3.831   2.288
19354SOL    HW162909   6.962   3.794   2.198
19354SOL    HW262910   7.085   3.847   2.292
19355SOL     OW62911   5.835   5.509   3.103
19355SOL    HW162912   5.892   5.444   3.153
19355SOL    HW262913   5.819   5.476   3.010
19356SOL     OW62914   6.526   5.422   2.766
19356SOL    HW162915   6.606   5.365   2.787
19356SOL    HW262916   6.477   5.382   2.689
19357SOL     OW62917   5.968   4.424   2.342
19357SOL    HW162918   6.013   4.334   2.339
19357SOL    HW262919   5.874   4.413   2.375
19358SOL     OW62920   7.133   3.946   3.591
19358SOL    HW162921   7.128   3.983   3.683
19358SOL    HW262922   7.061   3.877   3.579
19359SOL     OW62923   6.200   3.846   1.979
19359SOL    HW162924   6.298   3.824   1.986
19359SOL    HW262925   6.169   3.829   1.886
19360SOL     OW62926   6.367   3.988   3.611
19360SOL    HW162927   6.434   3.927   3.654
19360SOL    HW262928   6.294   4.007   3.676
19361SOL     OW62929   6.474   5.238   3.057
19361SOL    HW162930   6.451   5.213   2.963
19361SOL    HW262931   6.535   5.169   3.096
19362SOL     OW62932   6.937   4.314   3.295
19362SOL    HW162933   6.965   4.271   3.380
19362SOL    HW262934   6.962   4.410   3.296
19363SOL     OW62935   6.389   5.126   2.786
19363SOL    HW162936   6.479   5.140   2.744
19363SOL    HW262937   6.318   5.128   2.715
19364SOL     OW62938   6.508   4.227   2.761
19364SOL    HW162939   6.483   4.218   2.665
19364SOL    HW262940   6.556   4.145   2.792
19365SOL     OW62941   6.125   3.788   2.374
19365SOL    HW162942   6.044   3.789   2.432
19365SOL    HW262943   6.128   3.871   2.319
19366SOL     OW62944   7.020   4.912   1.903
19366SOL    HW162945   7.052   4.836   1.960
19366SOL    HW262946   6.928   4.939   1.933
19367SOL     OW62947   5.883   3.759   2.033
19367SOL    HW162948   5.932   3.843   2.012
19367SOL    HW262949   5.945   3.694   2.078
19368SOL     OW62950   6.521   3.960   2.342
19368SOL    HW162951   6.473   4.001   2.264
19368SOL    HW262952   6.620   3.958   2.323
19369SOL     OW62953   6.662   4.407   3.326
19369SOL    HW162954   6.582   4.346   3.329
19369SOL    HW262955   6.743   4.354   3.302
19370SOL     OW62956   6.813   5.294   2.655
19370SOL    HW162957   6.834   5.368   2.590
19370SOL    HW262958   6.881   5.294   2.728
19371SOL     OW62959   6.045   4.876   2.603
19371SOL    HW162960   5.974   4.849   2.668
19371SOL    HW262961   6.019   4.848   2.510
19372SOL     OW62962   6.857   5.521   2.453
19372SOL    HW162963   6.901   5.585   2.389
19372SOL    HW262964   6.807   5.573   2.523
19373SOL     OW62965   6.618   4.273   1.878
19373SOL    HW162966   6.577   4.355   1.839
19373SOL    HW262967   6.682   4.299   1.951
19374SOL     OW62968   5.664   4.280   3.248
19374SOL    HW162969   5.756   4.279   3.207
19374SOL    HW262970   5.658   4.354   3.315
19375SOL     OW62971   6.147   3.946   3.009
19375SOL    HW162972   6.185   3.862   3.046
19375SOL    HW262973   6.059   3.965   3.053
19376SOL     OW62974   6.452   4.178   2.504
19376SOL    HW162975   6.420   4.250   2.442
19376SOL    HW262976   6.476   4.097   2.451
19377SOL     OW62977   6.603   3.763   2.615
19377SOL    HW162978   6.531   3.768   2.546
19377SOL    HW262979   6.579   3.694   2.684
19378SOL     OW62980   7.015   4.897   2.729
19378SOL    HW162981   6.960   4.813   2.722
19378SOL    HW262982   7.041   4.926   2.637
19379SOL     OW62983   7.052   4.314   2.854
19379SOL    HW162984   7.022   4.219   2.861
19379SOL    HW262985   7.125   4.330   2.920
19380SOL     OW62986   7.443   4.557   2.239
19380SOL    HW162987   7.485   4.493   2.303
19380SOL    HW262988   7.405   4.506   2.161
19381SOL     OW62989   6.074   5.109   2.036
19381SOL    HW162990   5.987   5.094   2.083
19381SOL    HW262991   6.057   5.135   1.941
19382SOL     OW62992   7.250   5.004   2.519
19382SOL    HW162993   7.349   5.012   2.533
19382SOL    HW262994   7.205   5.088   2.550
19383SOL     OW62995   6.976   4.299   1.940
19383SOL    HW162996   6.922   4.278   2.021
19383SOL    HW262997   7.067   4.258   1.949
19384SOL     OW62998   6.113   3.980   2.190
19384SOL    HW162999   6.140   3.921   2.115
19384SOL    HW263000   6.113   4.075   2.159
19385SOL     OW63001   7.340   4.947   3.450
19385SOL    HW163002   7.431   4.908   3.437
19385SOL    HW263003   7.348   5.043   3.474
19386SOL     OW63004   6.650   5.071   3.202
19386SOL    HW163005   6.570   5.048   3.257
19386SOL    HW263006   6.733   5.045   3.251
19387SOL     OW63007   7.178   5.353   3.487
19387SOL    HW163008   7.205   5.387   3.397
19387SOL    HW263009   7.257   5.315   3.533
19388SOL     OW63010   7.224   4.823   2.941
19388SOL    HW163011   7.229   4.904   3.000
19388SOL    HW263012   7.138   4.825   2.890
19389SOL     OW63013   6.501   3.813   3.264
19389SOL    HW163014   6.526   3.793   3.169
19389SOL    HW263015   6.573   3.869   3.306
19390SOL     OW63016   6.566   4.840   3.581
19390SOL    HW163017   6.467   4.846   3.591
19390SOL    HW263018   6.589   4.760   3.525
19391SOL     OW63019   6.291   4.774   2.230
19391SOL    HW163020   6.277   4.781   2.329
19391SOL    HW263021   6.375   4.723   2.212
19392SOL     OW63022   5.996   4.537   3.113
19392SOL    HW163023   6.082   4.549   3.163
19392SOL    HW263024   5.954   4.450   3.140
19393SOL     OW63025   6.860   4.110   3.124
19393SOL    HW163026   6.881   4.184   3.188
19393SOL    HW263027   6.771   4.127   3.081
19394SOL     OW63028   5.650   5.288   3.193
19394SOL    HW163029   5.604   5.370   3.159
19394SOL    HW263030   5.748   5.307   3.202
19395SOL     OW63031   5.953   4.824   2.363
19395SOL    HW163032   5.946   4.907   2.307
19395SOL    HW263033   5.957   4.744   2.303
19396SOL     OW63034   6.152   4.261   2.727
19396SOL    HW163035   6.164   4.327   2.653
19396SOL    HW263036   6.198   4.295   2.810
19397SOL     OW63037   6.838   5.072   2.250
19397SOL    HW163038   6.888   5.149   2.290
19397SOL    HW263039   6.743   5.074   2.282
19398SOL     OW63040   6.858   5.169   3.004
19398SOL    HW163041   6.905   5.182   3.091
19398SOL    HW263042   6.792   5.095   3.013
19399SOL     OW63043   7.168   4.363   2.334
19399SOL    HW163044   7.137   4.424   2.407
19399SOL    HW263045   7.218   4.415   2.265
19400SOL     OW63046   5.988   4.475   3.460
19400SOL    HW163047   6.056   4.530   3.413
19400SOL    HW263048   6.028   4.387   3.487
19401SOL     OW63049   7.173   4.503   3.532
19401SOL    HW163050   7.081   4.541   3.527
19401SOL    HW263051   7.233   4.550   3.467
19402SOL     OW63052   6.599   3.829   3.632
19402SOL    HW163053   6.605   3.914   3.580
19402SOL    HW263054   6.631   3.753   3.575
19403SOL     OW63055   6.090   3.774   3.602
19403SOL    HW163056   6.048   3.717   3.532
19403SOL    HW263057   6.024   3.843   3.634
19404SOL     OW63058   6.159   4.594   2.891
19404SOL    HW163059   6.203   4.683   2.882
19404SOL    HW263060   6.096   4.594   2.968
19405SOL     OW63061   6.946   4.586   2.907
19405SOL    HW163062   6.871   4.586   2.841
19405SOL    HW263063   6.983   4.494   2.916
19406SOL     OW63064   6.795   4.249   2.137
19406SOL    HW163065   6.808   4.165   2.191
19406SOL    HW263066   6.766   4.323   2.197
19407SOL     OW63067   5.893   3.937   3.093
19407SOL    HW163068   5.870   3.974   3.183
19407SOL    HW263069   5.863   3.842   3.087
19408SOL     OW63070   5.623   5.034   3.144
19408SOL    HW163071   5.676   4.985   3.212
19408SOL    HW263072   5.645   5.132   3.149
19409SOL     OW63073   6.318   4.358   2.926
19409SOL    HW163074   6.377   4.332   2.850
19409SOL    HW263075   6.290   4.454   2.915
19410SOL     OW63076   7.314   4.659   3.716
19410SOL    HW163077   7.268   4.652   3.627
19410SOL    HW263078   7.252   4.703   3.782
19411SOL     OW63079   5.893   3.787   2.480
19411SOL    HW163080   5.882   3.881   2.513
19411SOL    HW263081   5.888   3.724   2.557
19412SOL     OW63082   7.208   4.091   2.236
19412SOL    HW163083   7.210   4.015   2.300
19412SOL    HW263084   7.160   4.168   2.276
19413SOL     OW63085   6.609   4.490   2.828
19413SOL    HW163086   6.624   4.511   2.924
19413SOL    HW263087   6.579   4.395   2.819
19414SOL     OW63088   6.566   5.297   3.562
19414SOL    HW163089   6.546   5.341   3.474
19414SOL    HW263090   6.605   5.206   3.546
19415SOL     OW63091   7.445   5.242   3.467
19415SOL    HW163092   7.459   5.269   3.372
19415SOL    HW263093   7.528   5.264   3.520
19416SOL     OW63094   5.936   4.622   3.666
19416SOL    HW163095   6.012   4.666   3.714
19416SOL    HW263096   5.971   4.575   3.584
19417SOL     OW63097   7.126   3.998   1.987
19417SOL    HW163098   7.065   3.923   2.010
19417SOL    HW263099   7.148   4.050   2.070
19418SOL     OW63100   6.889   4.562   1.904
19418SOL    HW163101   6.923   4.469   1.919
19418SOL    HW263102   6.907   4.589   1.809
19419SOL     OW63103   6.654   5.057   2.711
19419SOL    HW163104   6.661   4.973   2.656
19419SOL    HW263105   6.716   5.126   2.675
19420SOL     OW63106   5.905   4.534   2.811
19420SOL    HW163107   5.998   4.570   2.816
19420SOL    HW263108   5.899   4.449   2.863
19421SOL     OW63109   5.925   4.233   2.868
19421SOL    HW163110   5.873   4.150   2.851
19421SOL    HW263111   6.002   4.238   2.804
19422SOL     OW63112   6.724   4.104   3.540
19422SOL    HW163113   6.679   4.167   3.604
19422SOL    HW263114   6.817   4.135   3.523
19423SOL     OW63115   6.746   3.931   3.339
19423SOL    HW163116   6.746   3.995   3.416
19423SOL    HW263117   6.774   3.979   3.256
19424SOL     OW63118   5.594   5.050   2.062
19424SOL    HW163119   5.501   5.071   2.031
19424SOL    HW263120   5.604   4.951   2.075
19425SOL     OW63121   5.674   5.525   2.789
19425SOL    HW163122   5.632   5.439   2.762
19425SOL    HW263123   5.768   5.528   2.755
19426SOL     OW63124   6.090   5.292   2.772
19426SOL    HW163125   6.156   5.366   2.781
19426SOL    HW263126   6.134   5.213   2.730
19427SOL     OW63127   6.588   4.520   3.100
19427SOL    HW163128   6.629   4.488   3.186
19427SOL    HW263129   6.492   4.493   3.097
19428SOL     OW63130   5.626   4.268   2.976
19428SOL    HW163131   5.711   4.235   2.935
19428SOL    HW263132   5.639   4.283   3.074
19429SOL     OW63133   5.775   4.244   3.584
19429SOL    HW163134   5.834   4.204   3.514
19429SOL    HW263135   5.717   4.315   3.543
19430SOL     OW63136   6.955   4.674   3.522
19430SOL    HW163137   6.994   4.763   3.542
19430SOL    HW263138   6.965   4.654   3.425
19431SOL     OW63139   6.401   4.296   2.187
19431SOL    HW163140   6.408   4.207   2.141
19431SOL    HW263141   6.307   4.330   2.179
19432SOL     OW63142   7.243   4.328   3.068
19432SOL    HW163143   7.205   4.259   3.130
19432SOL    HW263144   7.325   4.292   3.024
19433SOL     OW63145   5.838   5.288   3.606
19433SOL    HW163146   5.808   5.345   3.682
19433SOL    HW263147   5.831   5.191   3.632
19434SOL     OW63148   6.257   4.188   3.131
19434SOL    HW163149   6.223   4.099   3.101
19434SOL    HW263150   6.283   4.242   3.051
19435SOL     OW63151   6.516   5.402   3.327
19435SOL    HW163152   6.492   5.384   3.232
19435SOL    HW263153   6.546   5.496   3.337
19436SOL     OW63154   6.059   4.224   2.053
19436SOL    HW163155   6.120   4.304   2.057
19436SOL    HW263156   5.964   4.255   2.060
19437SOL     OW63157   5.745   4.861   3.328
19437SOL    HW163158   5.767   4.800   3.404
19437SOL    HW263159   5.755   4.812   3.242
19438SOL     OW63160   6.933   4.783   3.096
19438SOL    HW163161   6.957   4.720   3.022
19438SOL    HW263162   6.843   4.823   3.078
19439SOL     OW63163   6.888   4.579   2.171
19439SOL    HW163164   6.802   4.548   2.213
19439SOL    HW263165   6.884   4.565   2.072
19440SOL     OW63166   7.345   5.471   3.016
19440SOL    HW163167   7.406   5.501   2.943
19440SOL    HW263168   7.307   5.382   2.994
19441SOL     OW63169   6.838   5.455   2.990
19441SOL    HW163170   6.922   5.460   2.936
19441SOL    HW263171   6.815   5.359   3.008
19442SOL     OW63172   5.669   4.982   2.884
19442SOL    HW163173   5.664   4.981   2.984
19442SOL    HW263174   5.586   4.941   2.846
19443SOL     OW63175   6.274   5.386   3.578
19443SOL    HW163176   6.218   5.467   3.587
19443SOL    HW263177   6.326   5.390   3.492
19444SOL     OW63178   7.312   3.859   2.385
19444SOL    HW163179   7.385   3.842   2.318
19444SOL    HW263180   7.281   3.772   2.423
19445SOL     OW63181   6.974   5.297   2.339
19445SOL    HW163182   7.041   5.309   2.265
19445SOL    HW263183   6.934   5.386   2.362
19446SOL     OW63184   5.716   5.518   3.713
19446SOL    HW163185   5.675   5.444   3.766
19446SOL    HW263186   5.780   5.569   3.771
19447SOL     OW63187   6.866   4.651   2.534
19447SOL    HW163188   6.926   4.570   2.536
19447SOL    HW263189   6.906   4.720   2.474
19448SOL     OW63190   6.416   4.997   3.284
19448SOL    HW163191   6.411   5.030   3.379
19448SOL    HW263192   6.330   5.016   3.238
19449SOL     OW63193   6.258   5.340   2.016
19449SOL    HW163194   6.267   5.350   1.917
19449SOL    HW263195   6.218   5.251   2.037
19450SOL     OW63196   7.236   5.444   3.256
19450SOL    HW163197   7.289   5.454   3.172
19450SOL    HW263198   7.209   5.534   3.290
19451SOL     OW63199   7.427   3.899   2.825
19451SOL    HW163200   7.466   3.814   2.789
19451SOL    HW263201   7.329   3.901   2.806
19452SOL     OW63202   5.849   4.050   2.582
19452SOL    HW163203   5.770   4.101   2.548
19452SOL    HW263204   5.840   4.035   2.680
19453SOL     OW63205   6.780   5.336   1.893
19453SOL    HW163206   6.786   5.243   1.930
19453SOL    HW263207   6.721   5.336   1.813
19454SOL     OW63208   6.408   4.726   3.234
19454SOL    HW163209   6.448   4.725   3.142
19454SOL    HW263210   6.418   4.818   3.274
19455SOL     OW63211   6.502   4.634   2.153
19455SOL    HW163212   6.565   4.672   2.085
19455SOL    HW263213   6.542   4.551   2.192
19456SOL     OW63214   7.090   5.331   1.906
19456SOL    HW163215   6.998   5.368   1.913
19456SOL    HW263216   7.128   5.351   1.816
19457SOL     OW63217   5.958   5.012   3.352
19457SOL    HW163218   5.945   5.105   3.318
19457SOL    HW263219   5.874   4.960   3.339
19458SOL     OW63220   7.200   5.016   3.151
19458SOL    HW163221   7.260   5.019   3.231
19458SOL    HW263222   7.125   5.080   3.164
19459SOL     OW63223   6.625   4.822   2.558
19459SOL    HW163224   6.555   4.775   2.612
19459SOL    HW263225   6.684   4.754   2.515
19460SOL     OW63226   6.600   3.960   2.833
19460SOL    HW163227   6.592   3.924   2.740
19460SOL    HW263228   6.598   3.884   2.898
19461SOL     OW63229   6.176   5.211   2.353
19461SOL    HW163230   6.218   5.153   2.283
19461SOL    HW263231   6.132   5.290   2.309
19462SOL     OW63232   7.295   4.109   3.243
19462SOL    HW163233   7.368   4.178   3.247
19462SOL    HW263234   7.323   4.034   3.184
19463SOL     OW63235   5.841   5.072   2.152
19463SOL    HW163236   5.745   5.073   2.125
19463SOL    HW263237   5.853   5.125   2.236
19464SOL     OW63238   5.691   4.737   3.588
19464SOL    HW163239   5.614   4.704   3.642
19464SOL    HW263240   5.776   4.707   3.630
19465SOL     OW63241   6.258   3.927   3.351
19465SOL    HW163242   6.348   3.911   3.311
19465SOL    HW263243   6.266   3.932   3.450
19466SOL     OW63244   5.661   4.069   1.895
19466SOL    HW163245   5.569   4.041   1.866
19466SOL    HW263246   5.692   4.146   1.839
19467SOL     OW63247   7.026   4.580   3.260
19467SOL    HW163248   6.969   4.632   3.197
19467SOL    HW263249   7.122   4.592   3.236
19468SOL     OW63250   5.658   3.890   2.180
19468SOL    HW163251   5.641   3.973   2.126
19468SOL    HW263252   5.748   3.853   2.158
19469SOL     OW63253   6.769   5.059   1.981
19469SOL    HW163254   6.670   5.048   1.983
19469SOL    HW263255   6.803   5.074   2.074
19470SOL     OW63256   7.079   5.491   2.821
19470SOL    HW163257   7.112   5.555   2.752
19470SOL    HW263258   7.145   5.485   2.896
19471SOL     OW63259   6.302   4.289   3.570
19471SOL    HW163260   6.321   4.354   3.644
19471SOL    HW263261   6.362   4.209   3.579
19472SOL     OW63262   7.036   4.944   3.495
19472SOL    HW163263   7.027   4.934   3.594
19472SOL    HW263264   7.132   4.937   3.469
19473SOL     OW63265   5.976   5.465   3.422
19473SOL    HW163266   5.885   5.506   3.420
19473SOL    HW263267   5.969   5.371   3.454
19474SOL     OW63268   7.260   4.607   3.116
19474SOL    HW163269   7.233   4.518   3.079
19474SOL    HW263270   7.261   4.675   3.043
19475SOL     OW63271   6.811   4.049   2.311
19475SOL    HW163272   6.876   3.975   2.300
19475SOL    HW263273   6.831   4.099   2.395
19476SOL     OW63274   6.180   4.469   2.514
19476SOL    HW163275   6.230   4.554   2.495
19476SOL    HW263276   6.092   4.471   2.466
19477SOL     OW63277   7.363   4.066   3.504
19477SOL    HW163278   7.346   4.097   3.410
19477SOL    HW263279   7.279   4.029   3.542
19478SOL     OW63280   7.316   4.658   3.379
19478SOL    HW163281   7.354   4.749   3.394
19478SOL    HW263282   7.308   4.641   3.280
19479SOL     OW63283   6.445   5.098   1.878
19479SOL    HW163284   6.399   5.113   1.966
19479SOL    HW263285   6.489   5.183   1.848
19480SOL     OW63286   6.247   5.514   2.815
19480SOL    HW163287   6.201   5.602   2.802
19480SOL    HW263288   6.346   5.526   2.808
19481SOL     OW63289   6.445   4.680   2.723
19481SOL    HW163290   6.499   4.611   2.771
19481SOL    HW263291   6.413   4.749   2.789
19482SOL     OW63292   6.669   4.708   1.949
19482SOL    HW163293   6.646   4.761   1.867
19482SOL    HW263294   6.750   4.652   1.930
19483SOL     OW63295   7.447   5.293   2.713
19483SOL    HW163296   7.376   5.281   2.643
19483SOL    HW263297   7.448   5.214   2.773
19484SOL     OW63298   5.807   5.038   3.706
19484SOL    HW163299   5.742   4.965   3.685
19484SOL    HW263300   5.811   5.052   3.804
19485SOL     OW63301   5.665   4.964   2.515
19485SOL    HW163302   5.664   4.917   2.603
19485SOL    HW263303   5.747   4.936   2.464
19486SOL     OW63304   6.258   5.115   3.486
19486SOL    HW163305   6.180   5.065   3.524
19486SOL    HW263306   6.255   5.210   3.517
19487SOL     OW63307   7.410   3.916   3.089
19487SOL    HW163308   7.406   3.826   3.133
19487SOL    HW263309   7.413   3.905   2.990
19488SOL     OW63310   6.014   4.148   2.382
19488SOL    HW163311   6.044   4.076   2.320
19488SOL    HW263312   5.975   4.108   2.465
19489SOL     OW63313   7.291   5.211   2.966
19489SOL    HW163314   7.198   5.186   2.939
19489SOL    HW263315   7.317   5.161   3.048
19490SOL     OW63316   5.903   4.271   3.142
19490SOL    HW163317   5.941   4.212   3.214
19490SOL    HW263318   5.943   4.245   3.054
19491SOL     OW63319   6.398   5.310   2.549
19491SOL    HW163320   6.430   5.320   2.455
19491SOL    HW263321   6.319   5.248   2.551
19492SOL     OW63322   7.010   3.938   2.974
19492SOL    HW163323   7.062   3.873   3.029
19492SOL    HW263324   6.961   4.001   3.035
19493SOL     OW63325   6.587   3.758   3.016
19493SOL    HW163326   6.524   3.686   2.985
19493SOL    HW263327   6.680   3.722   3.016
19494SOL     OW63328   6.356   5.054   2.163
19494SOL    HW163329   6.310   4.967   2.180
19494SOL    HW263330   6.447   5.051   2.204
19495SOL     OW63331   6.204   5.291   3.146
19495SOL    HW163332   6.199   5.373   3.203
19495SOL    HW263333   6.293   5.288   3.101
19496SOL     OW63334   6.938   3.776   2.030
19496SOL    HW163335   6.973   3.735   1.946
19496SOL    HW263336   6.848   3.738   2.050
19497SOL     OW63337   6.886   4.177   2.553
19497SOL    HW163338   6.827   4.257   2.557
19497SOL    HW263339   6.901   4.142   2.646
19498SOL     OW63340   7.179   3.945   2.744
19498SOL    HW163341   7.095   3.944   2.798
19498SOL    HW263342   7.181   4.028   2.688
19499SOL     OW63343   5.625   4.801   2.162
19499SOL    HW163344   5.724   4.790   2.153
19499SOL    HW263345   5.585   4.715   2.194
19500SOL     OW63346   6.461   5.370   2.199
19500SOL    HW163347   6.384   5.335   2.145
19500SOL    HW263348   6.429   5.441   2.261
19501SOL     OW63349   5.816   4.352   3.837
19501SOL    HW163350   5.723   4.350   3.874
19501SOL    HW263351   5.817   4.313   3.745
19502SOL     OW63352   5.811   3.999   4.720
19502SOL    HW163353   5.846   3.982   4.812
19502SOL    HW263354   5.723   3.954   4.708
19503SOL     OW63355   5.605   4.092   4.371
19503SOL    HW163356   5.523   4.135   4.410
19503SOL    HW263357   5.577   4.019   4.308
19504SOL     OW63358   6.155   4.999   4.889
19504SOL    HW163359   6.062   4.992   4.852
19504SOL    HW263360   6.166   5.088   4.933
19505SOL     OW63361   7.141   5.235   4.427
19505SOL    HW163362   7.084   5.219   4.508
19505SOL    HW263363   7.082   5.245   4.347
19506SOL     OW63364   6.721   4.427   4.441
19506SOL    HW163365   6.778   4.505   4.416
19506SOL    HW263366   6.661   4.453   4.517
19507SOL     OW63367   7.341   4.331   3.955
19507SOL    HW163368   7.329   4.318   3.856
19507SOL    HW263369   7.311   4.250   4.004
19508SOL     OW63370   6.354   4.868   4.747
19508SOL    HW163371   6.276   4.885   4.807
19508SOL    HW263372   6.388   4.955   4.711
19509SOL     OW63373   6.436   4.522   5.547
19509SOL    HW163374   6.432   4.598   5.612
19509SOL    HW263375   6.458   4.558   5.456
19510SOL     OW63376   6.271   4.736   4.389
19510SOL    HW163377   6.340   4.720   4.459
19510SOL    HW263378   6.198   4.793   4.427
19511SOL     OW63379   6.272   4.885   5.527
19511SOL    HW163380   6.332   4.964   5.541
19511SOL    HW263381   6.186   4.916   5.486
19512SOL     OW63382   5.921   5.159   4.785
19512SOL    HW163383   5.843   5.128   4.732
19512SOL    HW263384   5.979   5.217   4.728
19513SOL     OW63385   6.024   4.116   5.223
19513SOL    HW163386   6.106   4.060   5.232
19513SOL    HW263387   5.943   4.058   5.227
19514SOL     OW63388   7.189   4.171   4.461
19514SOL    HW163389   7.115   4.217   4.411
19514SOL    HW263390   7.240   4.239   4.514
19515SOL     OW63391   5.817   5.437   4.207
19515SOL    HW163392   5.851   5.514   4.261
19515SOL    HW263393   5.861   5.437   4.117
19516SOL     OW63394   6.713   5.065   5.414
19516SOL    HW163395   6.760   5.065   5.502
19516SOL    HW263396   6.665   4.978   5.403
19517SOL     OW63397   5.816   5.158   4.262
19517SOL    HW163398   5.790   5.254   4.262
19517SOL    HW263399   5.745   5.104   4.307
19518SOL     OW63400   5.826   4.815   4.610
19518SOL    HW163401   5.840   4.731   4.662
19518SOL    HW263402   5.771   4.879   4.665
19519SOL     OW63403   6.206   5.510   5.163
19519SOL    HW163404   6.114   5.493   5.198
19519SOL    HW263405   6.234   5.602   5.189
19520SOL     OW63406   6.192   4.688   3.847
19520SOL    HW163407   6.199   4.772   3.793
19520SOL    HW263408   6.238   4.701   3.935
19521SOL     OW63409   7.180   3.838   5.204
19521SOL    HW163410   7.162   3.905   5.132
19521SOL    HW263411   7.177   3.884   5.293
19522SOL     OW63412   5.708   4.367   4.287
19522SOL    HW163413   5.663   4.279   4.304
19522SOL    HW263414   5.707   4.421   4.371
19523SOL     OW63415   7.428   5.491   4.083
19523SOL    HW163416   7.482   5.462   4.163
19523SOL    HW263417   7.458   5.581   4.054
19524SOL     OW63418   5.613   5.320   3.841
19524SOL    HW163419   5.594   5.224   3.862
19524SOL    HW263420   5.580   5.378   3.916
19525SOL     OW63421   7.275   4.646   4.336
19525SOL    HW163422   7.370   4.617   4.344
19525SOL    HW263423   7.267   4.711   4.261
19526SOL     OW63424   7.227   4.832   4.156
19526SOL    HW163425   7.313   4.834   4.104
19526SOL    HW263426   7.241   4.879   4.244
19527SOL     OW63427   5.699   4.461   5.321
19527SOL    HW163428   5.787   4.448   5.366
19527SOL    HW263429   5.686   4.558   5.299
19528SOL     OW63430   6.199   5.089   4.450
19528SOL    HW163431   6.150   5.002   4.459
19528SOL    HW263432   6.176   5.132   4.363
19529SOL     OW63433   6.879   4.952   5.147
19529SOL    HW163434   6.916   4.879   5.089
19529SOL    HW263435   6.931   4.957   5.232
19530SOL     OW63436   6.395   3.728   4.226
19530SOL    HW163437   6.435   3.819   4.217
19530SOL    HW263438   6.295   3.736   4.232
19531SOL     OW63439   5.783   4.700   4.988
19531SOL    HW163440   5.872   4.655   4.974
19531SOL    HW263441   5.710   4.635   4.969
19532SOL     OW63442   7.111   4.723   3.914
19532SOL    HW163443   7.048   4.647   3.927
19532SOL    HW263444   7.159   4.741   4.000
19533SOL     OW63445   6.773   5.516   5.340
19533SOL    HW163446   6.797   5.576   5.264
19533SOL    HW263447   6.780   5.421   5.310
19534SOL     OW63448   5.903   3.975   5.525
19534SOL    HW163449   5.974   4.046   5.531
19534SOL    HW263450   5.815   4.014   5.553
19535SOL     OW63451   7.052   5.141   4.677
19535SOL    HW163452   6.993   5.147   4.757
19535SOL    HW263453   7.037   5.053   4.631
19536SOL     OW63454   7.253   5.438   4.296
19536SOL    HW163455   7.212   5.415   4.208
19536SOL    HW263456   7.235   5.364   4.361
19537SOL     OW63457   6.184   4.453   3.994
19537SOL    HW163458   6.208   4.522   3.926
19537SOL    HW263459   6.106   4.486   4.048
19538SOL     OW63460   6.867   4.069   4.668
19538SOL    HW163461   6.781   4.019   4.655
19538SOL    HW263462   6.929   4.015   4.724
19539SOL     OW63463   7.162   5.386   4.031
19539SOL    HW163464   7.251   5.432   4.034
19539SOL    HW263465   7.141   5.362   3.936
19540SOL     OW63466   6.980   4.193   5.398
19540SOL    HW163467   6.960   4.236   5.486
19540SOL    HW263468   7.058   4.131   5.407
19541SOL     OW63469   6.559   4.614   5.296
19541SOL    HW163470   6.605   4.530   5.267
19541SOL    HW263471   6.503   4.648   5.221
19542SOL     OW63472   6.577   4.134   4.966
19542SOL    HW163473   6.500   4.168   5.020
19542SOL    HW263474   6.543   4.083   4.887
19543SOL     OW63475   6.627   4.425   4.153
19543SOL    HW163476   6.653   4.421   4.249
19543SOL    HW263477   6.542   4.374   4.139
19544SOL     OW63478   5.662   4.535   4.513
19544SOL    HW163479   5.761   4.523   4.522
19544SOL    HW263480   5.638   4.630   4.534
19545SOL     OW63481   5.716   5.545   5.295
19545SOL    HW163482   5.706   5.530   5.394
19545SOL    HW263483   5.630   5.581   5.259
19546SOL     OW63484   6.451   4.072   3.919
19546SOL    HW163485   6.510   4.135   3.870
19546SOL    HW263486   6.470   3.978   3.890
19547SOL     OW63487   7.305   4.309   5.555
19547SOL    HW163488   7.279   4.398   5.519
19547SOL    HW263489   7.303   4.241   5.482
19548SOL     OW63490   6.948   4.868   4.269
19548SOL    HW163491   7.031   4.839   4.221
19548SOL    HW263492   6.899   4.935   4.213
19549SOL     OW63493   6.136   3.920   4.609
19549SOL    HW163494   6.131   3.915   4.709
19549SOL    HW263495   6.138   4.016   4.580
19550SOL     OW63496   6.594   5.180   4.201
19550SOL    HW163497   6.548   5.252   4.149
19550SOL    HW263498   6.590   5.200   4.299
19551SOL     OW63499   5.937   5.525   4.577
19551SOL    HW163500   5.987   5.439   4.583
19551SOL    HW263501   6.002   5.602   4.574
19552SOL     OW63502   7.381   4.790   4.597
19552SOL    HW163503   7.319   4.775   4.521
19552SOL    HW263504   7.329   4.801   4.682
19553SOL     OW63505   6.813   5.274   5.230
19553SOL    HW163506   6.819   5.197   5.294
19553SOL    HW263507   6.761   5.248   5.150
19554SOL     OW63508   5.907   4.667   3.966
19554SOL    HW163509   5.989   4.706   3.924
19554SOL    HW263510   5.880   4.585   3.917
19555SOL     OW63511   7.044   4.459   4.452
19555SOL    HW163512   7.039   4.394   4.527
19555SOL    HW263513   7.124   4.518   4.465
19556SOL     OW63514   6.047   4.990   5.451
19556SOL    HW163515   5.997   4.991   5.365
19556SOL    HW263516   5.984   4.972   5.527
19557SOL     OW63517   6.697   5.500   3.961
19557SOL    HW163518   6.637   5.438   4.011
19557SOL    HW263519   6.728   5.456   3.876
19558SOL     OW63520   5.788   4.009   5.222
19558SOL    HW163521   5.708   4.069   5.209
19558SOL    HW263522   5.778   3.960   5.308
19559SOL     OW63523   7.218   5.101   3.805
19559SOL    HW163524   7.186   5.195   3.795
19559SOL    HW263525   7.142   5.038   3.793
19560SOL     OW63526   6.050   5.467   4.047
19560SOL    HW163527   6.083   5.506   4.133
19560SOL    HW263528   6.126   5.460   3.982
19561SOL     OW63529   6.986   3.831   4.150
19561SOL    HW163530   6.962   3.794   4.060
19561SOL    HW263531   7.085   3.847   4.154
19562SOL     OW63532   5.835   5.509   4.965
19562SOL    HW163533   5.892   5.444   5.015
19562SOL    HW263534   5.819   5.476   4.872
19563SOL     OW63535   6.526   5.422   4.628
19563SOL    HW163536   6.606   5.365   4.649
19563SOL    HW263537   6.477   5.382   4.551
19564SOL     OW63538   7.133   3.946   5.453
19564SOL    HW163539   7.128   3.983   5.545
19564SOL    HW263540   7.061   3.877   5.441
19565SOL     OW63541   6.200   3.846   3.841
19565SOL    HW163542   6.298   3.824   3.848
19565SOL    HW263543   6.169   3.829   3.748
19566SOL     OW63544   6.367   3.988   5.473
19566SOL    HW163545   6.434   3.927   5.516
19566SOL    HW263546   6.294   4.007   5.538
19567SOL     OW63547   6.474   5.238   4.919
19567SOL    HW163548   6.451   5.213   4.825
19567SOL    HW263549   6.535   5.169   4.958
19568SOL     OW63550   6.937   4.314   5.157
19568SOL    HW163551   6.965   4.271   5.242
19568SOL    HW263552   6.962   4.410   5.158
19569SOL     OW63553   6.389   5.126   4.648
19569SOL    HW163554   6.479   5.140   4.606
19569SOL    HW263555   6.318   5.128   4.577
19570SOL     OW63556   6.508   4.227   4.623
19570SOL    HW163557   6.483   4.218   4.527
19570SOL    HW263558   6.556   4.145   4.654
19571SOL     OW63559   6.125   3.788   4.236
19571SOL    HW163560   6.044   3.789   4.294
19571SOL    HW263561   6.128   3.871   4.181
19572SOL     OW63562   7.020   4.912   3.765
19572SOL    HW163563   7.052   4.836   3.822
19572SOL    HW263564   6.928   4.939   3.795
19573SOL     OW63565   5.883   3.759   3.895
19573SOL    HW163566   5.932   3.843   3.874
19573SOL    HW263567   5.945   3.694   3.940
19574SOL     OW63568   6.521   3.960   4.204
19574SOL    HW163569   6.473   4.001   4.126
19574SOL    HW263570   6.620   3.958   4.185
19575SOL     OW63571   6.662   4.407   5.188
19575SOL    HW163572   6.582   4.346   5.191
19575SOL    HW263573   6.743   4.354   5.164
19576SOL     OW63574   6.813   5.294   4.517
19576SOL    HW163575   6.834   5.368   4.452
19576SOL    HW263576   6.881   5.294   4.590
19577SOL     OW63577   6.045   4.876   4.465
19577SOL    HW163578   5.974   4.849   4.530
19577SOL    HW263579   6.019   4.848   4.372
19578SOL     OW63580   6.857   5.521   4.315
19578SOL    HW163581   6.901   5.585   4.251
19578SOL    HW263582   6.807   5.573   4.385
19579SOL     OW63583   6.618   4.273   3.740
19579SOL    HW163584   6.577   4.355   3.701
19579SOL    HW263585   6.682   4.299   3.813
19580SOL     OW63586   5.664   4.280   5.110
19580SOL    HW163587   5.756   4.279   5.069
19580SOL    HW263588   5.658   4.354   5.177
19581SOL     OW63589   6.147   3.946   4.871
19581SOL    HW163590   6.185   3.862   4.908
19581SOL    HW263591   6.059   3.965   4.915
19582SOL     OW63592   6.452   4.178   4.366
19582SOL    HW163593   6.420   4.250   4.304
19582SOL    HW263594   6.476   4.097   4.313
19583SOL     OW63595   6.603   3.763   4.477
19583SOL    HW163596   6.531   3.768   4.408
19583SOL    HW263597   6.579   3.694   4.546
19584SOL     OW63598   7.015   4.897   4.591
19584SOL    HW163599   6.960   4.813   4.584
19584SOL    HW263600   7.041   4.926   4.499
19585SOL     OW63601   7.052   4.314   4.716
19585SOL    HW163602   7.022   4.219   4.723
19585SOL    HW263603   7.125   4.330   4.782
19586SOL     OW63604   7.443   4.557   4.101
19586SOL    HW163605   7.485   4.493   4.165
19586SOL    HW263606   7.405   4.506   4.023
19587SOL     OW63607   6.074   5.109   3.898
19587SOL    HW163608   5.987   5.094   3.945
19587SOL    HW263609   6.057   5.135   3.803
19588SOL     OW63610   7.250   5.004   4.381
19588SOL    HW163611   7.349   5.012   4.395
19588SOL    HW263612   7.205   5.088   4.412
19589SOL     OW63613   6.976   4.299   3.802
19589SOL    HW163614   6.922   4.278   3.883
19589SOL    HW263615   7.067   4.258   3.811
19590SOL     OW63616   6.113   3.980   4.052
19590SOL    HW163617   6.140   3.921   3.977
19590SOL    HW263618   6.113   4.075   4.021
19591SOL     OW63619   7.340   4.947   5.312
19591SOL    HW163620   7.431   4.908   5.299
19591SOL    HW263621   7.348   5.043   5.336
19592SOL     OW63622   6.650   5.071   5.064
19592SOL    HW163623   6.570   5.048   5.119
19592SOL    HW263624   6.733   5.045   5.113
19593SOL     OW63625   7.178   5.353   5.349
19593SOL    HW163626   7.205   5.387   5.259
19593SOL    HW263627   7.257   5.315   5.395
19594SOL     OW63628   6.697   4.919   4.824
19594SOL    HW163629   6.657   4.963   4.905
19594SOL    HW263630   6.656   4.956   4.741
19595SOL     OW63631   7.224   4.823   4.803
19595SOL    HW163632   7.229   4.904   4.862
19595SOL    HW263633   7.138   4.825   4.752
19596SOL     OW63634   6.501   3.813   5.126
19596SOL    HW163635   6.526   3.793   5.031
19596SOL    HW263636   6.573   3.869   5.168
19597SOL     OW63637   6.566   4.840   5.443
19597SOL    HW163638   6.467   4.846   5.453
19597SOL    HW263639   6.589   4.760   5.387
19598SOL     OW63640   6.291   4.774   4.092
19598SOL    HW163641   6.277   4.781   4.191
19598SOL    HW263642   6.375   4.723   4.074
19599SOL     OW63643   5.996   4.537   4.975
19599SOL    HW163644   6.082   4.549   5.025
19599SOL    HW263645   5.954   4.450   5.002
19600SOL     OW63646   6.860   4.110   4.986
19600SOL    HW163647   6.881   4.184   5.050
19600SOL    HW263648   6.771   4.127   4.943
19601SOL     OW63649   5.650   5.288   5.055
19601SOL    HW163650   5.604   5.370   5.021
19601SOL    HW263651   5.748   5.307   5.064
19602SOL     OW63652   5.953   4.824   4.225
19602SOL    HW163653   5.946   4.907   4.169
19602SOL    HW263654   5.957   4.744   4.165
19603SOL     OW63655   6.152   4.261   4.589
19603SOL    HW163656   6.164   4.327   4.515
19603SOL    HW263657   6.198   4.295   4.672
19604SOL     OW63658   6.838   5.072   4.112
19604SOL    HW163659   6.888   5.149   4.152
19604SOL    HW263660   6.743   5.074   4.144
19605SOL     OW63661   6.858   5.169   4.866
19605SOL    HW163662   6.905   5.182   4.953
19605SOL    HW263663   6.792   5.095   4.875
19606SOL     OW63664   5.940   5.234   5.053
19606SOL    HW163665   5.919   5.190   4.966
19606SOL    HW263666   6.037   5.260   5.056
19607SOL     OW63667   5.988   4.475   5.322
19607SOL    HW163668   6.056   4.530   5.275
19607SOL    HW263669   6.028   4.387   5.349
19608SOL     OW63670   7.173   4.503   5.394
19608SOL    HW163671   7.081   4.541   5.389
19608SOL    HW263672   7.233   4.550   5.329
19609SOL     OW63673   6.599   3.829   5.494
19609SOL    HW163674   6.605   3.914   5.442
19609SOL    HW263675   6.631   3.753   5.437
19610SOL     OW63676   6.090   3.774   5.464
19610SOL    HW163677   6.048   3.717   5.394
19610SOL    HW263678   6.024   3.843   5.496
19611SOL     OW63679   6.159   4.594   4.753
19611SOL    HW163680   6.203   4.683   4.744
19611SOL    HW263681   6.096   4.594   4.830
19612SOL     OW63682   6.946   4.586   4.769
19612SOL    HW163683   6.871   4.586   4.703
19612SOL    HW263684   6.983   4.494   4.778
19613SOL     OW63685   6.795   4.249   3.999
19613SOL    HW163686   6.808   4.165   4.053
19613SOL    HW263687   6.766   4.323   4.059
19614SOL     OW63688   5.893   3.937   4.955
19614SOL    HW163689   5.870   3.974   5.045
19614SOL    HW263690   5.863   3.842   4.949
19615SOL     OW63691   5.623   5.034   5.006
19615SOL    HW163692   5.676   4.985   5.074
19615SOL    HW263693   5.645   5.132   5.011
19616SOL     OW63694   6.318   4.358   4.788
19616SOL    HW163695   6.377   4.332   4.712
19616SOL    HW263696   6.290   4.454   4.777
19617SOL     OW63697   7.314   4.659   5.578
19617SOL    HW163698   7.268   4.652   5.489
19617SOL    HW263699   7.252   4.703   5.644
19618SOL     OW63700   5.893   3.787   4.342
19618SOL    HW163701   5.882   3.881   4.375
19618SOL    HW263702   5.888   3.724   4.419
19619SOL     OW63703   7.208   4.091   4.098
19619SOL    HW163704   7.210   4.015   4.162
19619SOL    HW263705   7.160   4.168   4.138
19620SOL     OW63706   6.609   4.490   4.690
19620SOL    HW163707   6.624   4.511   4.786
19620SOL    HW263708   6.579   4.395   4.681
19621SOL     OW63709   6.566   5.297   5.424
19621SOL    HW163710   6.546   5.341   5.336
19621SOL    HW263711   6.605   5.206   5.408
19622SOL     OW63712   7.445   5.242   5.329
19622SOL    HW163713   7.459   5.269   5.234
19622SOL    HW263714   7.528   5.264   5.382
19623SOL     OW63715   5.936   4.622   5.528
19623SOL    HW163716   6.012   4.666   5.576
19623SOL    HW263717   5.971   4.575   5.446
19624SOL     OW63718   7.126   3.998   3.849
19624SOL    HW163719   7.065   3.923   3.872
19624SOL    HW263720   7.148   4.050   3.932
19625SOL     OW63721   6.889   4.562   3.766
19625SOL    HW163722   6.923   4.469   3.781
19625SOL    HW263723   6.907   4.589   3.671
19626SOL     OW63724   6.654   5.057   4.573
19626SOL    HW163725   6.661   4.973   4.518
19626SOL    HW263726   6.716   5.126   4.537
19627SOL     OW63727   5.905   4.534   4.673
19627SOL    HW163728   5.998   4.570   4.678
19627SOL    HW263729   5.899   4.449   4.725
19628SOL     OW63730   5.925   4.233   4.730
19628SOL    HW163731   5.873   4.150   4.713
19628SOL    HW263732   6.002   4.238   4.666
19629SOL     OW63733   6.724   4.104   5.402
19629SOL    HW163734   6.679   4.167   5.466
19629SOL    HW263735   6.817   4.135   5.385
19630SOL     OW63736   6.746   3.931   5.201
19630SOL    HW163737   6.746   3.995   5.278
19630SOL    HW263738   6.774   3.979   5.118
19631SOL     OW63739   5.594   5.050   3.924
19631SOL    HW163740   5.501   5.071   3.893
19631SOL    HW263741   5.604   4.951   3.937
19632SOL     OW63742   5.674   5.525   4.651
19632SOL    HW163743   5.632   5.439   4.624
19632SOL    HW263744   5.768   5.528   4.617
19633SOL     OW63745   6.090   5.292   4.634
19633SOL    HW163746   6.156   5.366   4.643
19633SOL    HW263747   6.134   5.213   4.592
19634SOL     OW63748   6.588   4.520   4.962
19634SOL    HW163749   6.629   4.488   5.048
19634SOL    HW263750   6.492   4.493   4.959
19635SOL     OW63751   5.626   4.268   4.838
19635SOL    HW163752   5.711   4.235   4.797
19635SOL    HW263753   5.639   4.283   4.936
19636SOL     OW63754   5.775   4.244   5.446
19636SOL    HW163755   5.834   4.204   5.376
19636SOL    HW263756   5.717   4.315   5.405
19637SOL     OW63757   6.955   4.674   5.384
19637SOL    HW163758   6.994   4.763   5.404
19637SOL    HW263759   6.965   4.654   5.287
19638SOL     OW63760   6.401   4.296   4.049
19638SOL    HW163761   6.408   4.207   4.003
19638SOL    HW263762   6.307   4.330   4.041
19639SOL     OW63763   7.243   4.328   4.930
19639SOL    HW163764   7.205   4.259   4.992
19639SOL    HW263765   7.325   4.292   4.886
19640SOL     OW63766   5.838   5.288   5.468
19640SOL    HW163767   5.808   5.345   5.544
19640SOL    HW263768   5.831   5.191   5.494
19641SOL     OW63769   6.257   4.188   4.993
19641SOL    HW163770   6.223   4.099   4.963
19641SOL    HW263771   6.283   4.242   4.913
19642SOL     OW63772   6.516   5.402   5.189
19642SOL    HW163773   6.492   5.384   5.094
19642SOL    HW263774   6.546   5.496   5.199
19643SOL     OW63775   6.059   4.224   3.915
19643SOL    HW163776   6.120   4.304   3.919
19643SOL    HW263777   5.964   4.255   3.922
19644SOL     OW63778   5.745   4.861   5.190
19644SOL    HW163779   5.767   4.800   5.266
19644SOL    HW263780   5.755   4.812   5.104
19645SOL     OW63781   6.933   4.783   4.958
19645SOL    HW163782   6.957   4.720   4.884
19645SOL    HW263783   6.843   4.823   4.940
19646SOL     OW63784   6.888   4.579   4.033
19646SOL    HW163785   6.802   4.548   4.075
19646SOL    HW263786   6.884   4.565   3.934
19647SOL     OW63787   7.345   5.471   4.878
19647SOL    HW163788   7.406   5.501   4.805
19647SOL    HW263789   7.307   5.382   4.856
19648SOL     OW63790   6.838   5.455   4.852
19648SOL    HW163791   6.922   5.460   4.798
19648SOL    HW263792   6.815   5.359   4.870
19649SOL     OW63793   5.669   4.982   4.746
19649SOL    HW163794   5.664   4.981   4.846
19649SOL    HW263795   5.586   4.941   4.708
19650SOL     OW63796   6.274   5.386   5.440
19650SOL    HW163797   6.218   5.467   5.449
19650SOL    HW263798   6.326   5.390   5.354
19651SOL     OW63799   7.312   3.859   4.247
19651SOL    HW163800   7.385   3.842   4.180
19651SOL    HW263801   7.281   3.772   4.285
19652SOL     OW63802   6.974   5.297   4.201
19652SOL    HW163803   7.041   5.309   4.127
19652SOL    HW263804   6.934   5.386   4.224
19653SOL     OW63805   5.716   5.518   5.575
19653SOL    HW163806   5.675   5.444   5.628
19653SOL    HW263807   5.780   5.569   5.633
19654SOL     OW63808   6.866   4.651   4.396
19654SOL    HW163809   6.926   4.570   4.398
19654SOL    HW263810   6.906   4.720   4.336
19655SOL     OW63811   6.416   4.997   5.146
19655SOL    HW163812   6.411   5.030   5.241
19655SOL    HW263813   6.330   5.016   5.100
19656SOL     OW63814   6.258   5.340   3.878
19656SOL    HW163815   6.267   5.350   3.779
19656SOL    HW263816   6.218   5.251   3.899
19657SOL     OW63817   7.236   5.444   5.118
19657SOL    HW163818   7.289   5.454   5.034
19657SOL    HW263819   7.209   5.534   5.152
19658SOL     OW63820   7.427   3.899   4.687
19658SOL    HW163821   7.466   3.814   4.651
19658SOL    HW263822   7.329   3.901   4.668
19659SOL     OW63823   5.849   4.050   4.444
19659SOL    HW163824   5.770   4.101   4.410
19659SOL    HW263825   5.840   4.035   4.542
19660SOL     OW63826   6.780   5.336   3.755
19660SOL    HW163827   6.786   5.243   3.792
19660SOL    HW263828   6.721   5.336   3.675
19661SOL     OW63829   6.408   4.726   5.096
19661SOL    HW163830   6.448   4.725   5.004
19661SOL    HW263831   6.418   4.818   5.136
19662SOL     OW63832   6.502   4.634   4.015
19662SOL    HW163833   6.565   4.672   3.947
19662SOL    HW263834   6.542   4.551   4.054
19663SOL     OW63835   7.090   5.331   3.768
19663SOL    HW163836   6.998   5.368   3.775
19663SOL    HW263837   7.128   5.351   3.678
19664SOL     OW63838   5.958   5.012   5.214
19664SOL    HW163839   5.945   5.105   5.180
19664SOL    HW263840   5.874   4.960   5.201
19665SOL     OW63841   7.200   5.016   5.013
19665SOL    HW163842   7.260   5.019   5.093
19665SOL    HW263843   7.125   5.080   5.026
19666SOL     OW63844   6.625   4.822   4.420
19666SOL    HW163845   6.555   4.775   4.474
19666SOL    HW263846   6.684   4.754   4.377
19667SOL     OW63847   6.176   5.211   4.215
19667SOL    HW163848   6.218   5.153   4.145
19667SOL    HW263849   6.132   5.290   4.171
19668SOL     OW63850   7.295   4.109   5.105
19668SOL    HW163851   7.368   4.178   5.109
19668SOL    HW263852   7.323   4.034   5.046
19669SOL     OW63853   5.841   5.072   4.014
19669SOL    HW163854   5.745   5.073   3.987
19669SOL    HW263855   5.853   5.125   4.098
19670SOL     OW63856   5.691   4.737   5.450
19670SOL    HW163857   5.614   4.704   5.504
19670SOL    HW263858   5.776   4.707   5.492
19671SOL     OW63859   6.258   3.927   5.213
19671SOL    HW163860   6.348   3.911   5.173
19671SOL    HW263861   6.266   3.932   5.312
19672SOL     OW63862   5.661   4.069   3.757
19672SOL    HW163863   5.569   4.041   3.728
19672SOL    HW263864   5.692   4.146   3.701
19673SOL     OW63865   7.026   4.580   5.122
19673SOL    HW163866   6.969   4.632   5.059
19673SOL    HW263867   7.122   4.592   5.098
19674SOL     OW63868   5.658   3.890   4.042
19674SOL    HW163869   5.641   3.973   3.988
19674SOL    HW263870   5.748   3.853   4.020
19675SOL     OW63871   6.769   5.059   3.843
19675SOL    HW163872   6.670   5.048   3.845
19675SOL    HW263873   6.803   5.074   3.936
19676SOL     OW63874   6.199   4.566   5.155
19676SOL    HW163875   6.255   4.647   5.138
19676SOL    HW263876   6.258   4.486   5.158
19677SOL     OW63877   7.079   5.491   4.683
19677SOL    HW163878   7.112   5.555   4.614
19677SOL    HW263879   7.145   5.485   4.758
19678SOL     OW63880   6.302   4.289   5.432
19678SOL    HW163881   6.321   4.354   5.506
19678SOL    HW263882   6.362   4.209   5.441
19679SOL     OW63883   7.036   4.944   5.357
19679SOL    HW163884   7.027   4.934   5.456
19679SOL    HW263885   7.132   4.937   5.331
19680SOL     OW63886   5.976   5.465   5.284
19680SOL    HW163887   5.885   5.506   5.282
19680SOL    HW263888   5.969   5.371   5.316
19681SOL     OW63889   7.260   4.607   4.978
19681SOL    HW163890   7.233   4.518   4.941
19681SOL    HW263891   7.261   4.675   4.905
19682SOL     OW63892   6.811   4.049   4.173
19682SOL    HW163893   6.876   3.975   4.162
19682SOL    HW263894   6.831   4.099   4.257
19683SOL     OW63895   6.180   4.469   4.376
19683SOL    HW163896   6.230   4.554   4.357
19683SOL    HW263897   6.092   4.471   4.328
19684SOL     OW63898   7.363   4.066   5.366
19684SOL    HW163899   7.346   4.097   5.272
19684SOL    HW263900   7.279   4.029   5.404
19685SOL     OW63901   7.316   4.658   5.241
19685SOL    HW163902   7.354   4.749   5.256
19685SOL    HW263903   7.308   4.641   5.142
19686SOL     OW63904   6.445   5.098   3.740
19686SOL    HW163905   6.399   5.113   3.828
19686SOL    HW263906   6.489   5.183   3.710
19687SOL     OW63907   6.247   5.514   4.677
19687SOL    HW163908   6.201   5.602   4.664
19687SOL    HW263909   6.346   5.526   4.670
19688SOL     OW63910   6.445   4.680   4.585
19688SOL    HW163911   6.499   4.611   4.633
19688SOL    HW263912   6.413   4.749   4.651
19689SOL     OW63913   6.669   4.708   3.811
19689SOL    HW163914   6.646   4.761   3.729
19689SOL    HW263915   6.750   4.652   3.792
19690SOL     OW63916   7.447   5.293   4.575
19690SOL    HW163917   7.376   5.281   4.505
19690SOL    HW263918   7.448   5.214   4.635
19691SOL     OW63919   5.807   5.038   5.568
19691SOL    HW163920   5.742   4.965   5.547
19691SOL    HW263921   5.811   5.052   5.666
19692SOL     OW63922   5.665   4.964   4.377
19692SOL    HW163923   5.664   4.917   4.465
19692SOL    HW263924   5.747   4.936   4.326
19693SOL     OW63925   6.258   5.115   5.348
19693SOL    HW163926   6.180   5.065   5.386
19693SOL    HW263927   6.255   5.210   5.379
19694SOL     OW63928   7.410   3.916   4.951
19694SOL    HW163929   7.406   3.826   4.995
19694SOL    HW263930   7.413   3.905   4.852
19695SOL     OW63931   6.014   4.148   4.244
19695SOL    HW163932   6.044   4.076   4.182
19695SOL    HW263933   5.975   4.108   4.327
19696SOL     OW63934   7.291   5.211   4.828
19696SOL    HW163935   7.198   5.186   4.801
19696SOL    HW263936   7.317   5.161   4.910
19697SOL     OW63937   5.903   4.271   5.004
19697SOL    HW163938   5.941   4.212   5.076
19697SOL    HW263939   5.943   4.245   4.916
19698SOL     OW63940   6.398   5.310   4.411
19698SOL    HW163941   6.430   5.320   4.317
19698SOL    HW263942   6.319   5.248   4.413
19699SOL     OW63943   7.010   3.938   4.836
19699SOL    HW163944   7.062   3.873   4.891
19699SOL    HW263945   6.961   4.001   4.897
19700SOL     OW63946   6.587   3.758   4.878
19700SOL    HW163947   6.524   3.686   4.847
19700SOL    HW263948   6.680   3.722   4.878
19701SOL     OW63949   6.356   5.054   4.025
19701SOL    HW163950   6.310   4.967   4.042
19701SOL    HW263951   6.447   5.051   4.066
19702SOL     OW63952   6.204   5.291   5.008
19702SOL    HW163953   6.199   5.373   5.065
19702SOL    HW263954   6.293   5.288   4.963
19703SOL     OW63955   6.938   3.776   3.892
19703SOL    HW163956   6.973   3.735   3.808
19703SOL    HW263957   6.848   3.738   3.912
19704SOL     OW63958   6.886   4.177   4.415
19704SOL    HW163959   6.827   4.257   4.419
19704SOL    HW263960   6.901   4.142   4.508
19705SOL     OW63961   7.179   3.945   4.606
19705SOL    HW163962   7.095   3.944   4.660
19705SOL    HW263963   7.181   4.028   4.550
19706SOL     OW63964   5.625   4.801   4.024
19706SOL    HW163965   5.724   4.790   4.015
19706SOL    HW263966   5.585   4.715   4.056
19707SOL     OW63967   6.461   5.370   4.061
19707SOL    HW163968   6.384   5.335   4.007
19707SOL    HW263969   6.429   5.441   4.123
19708SOL     OW63970   5.816   4.352   5.699
19708SOL    HW163971   5.723   4.350   5.736
19708SOL    HW263972   5.817   4.313   5.607
19709SOL     OW63973   5.811   3.999   6.582
19709SOL    HW163974   5.846   3.982   6.674
19709SOL    HW263975   5.723   3.954   6.570
19710SOL     OW63976   6.155   4.999   6.751
19710SOL    HW163977   6.062   4.992   6.714
19710SOL    HW263978   6.166   5.088   6.795
19711SOL     OW63979   7.141   5.235   6.289
19711SOL    HW163980   7.084   5.219   6.370
19711SOL    HW263981   7.082   5.245   6.209
19712SOL     OW63982   6.721   4.427   6.303
19712SOL    HW163983   6.778   4.505   6.278
19712SOL    HW263984   6.661   4.453   6.379
19713SOL     OW63985   7.341   4.331   5.817
19713SOL    HW163986   7.329   4.318   5.718
19713SOL    HW263987   7.311   4.250   5.866
19714SOL     OW63988   6.354   4.868   6.609
19714SOL    HW163989   6.276   4.885   6.669
19714SOL    HW263990   6.388   4.955   6.573
19715SOL     OW63991   6.436   4.522   7.409
19715SOL    HW163992   6.432   4.598   7.474
19715SOL    HW263993   6.458   4.558   7.318
19716SOL     OW63994   6.271   4.736   6.251
19716SOL    HW163995   6.340   4.720   6.321
19716SOL    HW263996   6.198   4.793   6.289
19717SOL     OW63997   6.272   4.885   7.389
19717SOL    HW163998   6.332   4.964   7.403
19717SOL    HW263999   6.186   4.916   7.348
19718SOL     OW64000   5.921   5.159   6.647
19718SOL    HW164001   5.843   5.128   6.594
19718SOL    HW264002   5.979   5.217   6.590
19719SOL     OW64003   7.046   5.229   6.925
19719SOL    HW164004   7.070   5.323   6.951
19719SOL    HW264005   7.030   5.175   7.007
19720SOL     OW64006   6.024   4.116   7.085
19720SOL    HW164007   6.106   4.060   7.094
19720SOL    HW264008   5.943   4.058   7.089
19721SOL     OW64009   7.189   4.171   6.323
19721SOL    HW164010   7.115   4.217   6.273
19721SOL    HW264011   7.240   4.239   6.376
19722SOL     OW64012   5.817   5.437   6.069
19722SOL    HW164013   5.851   5.514   6.123
19722SOL    HW264014   5.861   5.437   5.979
19723SOL     OW64015   6.713   5.065   7.276
19723SOL    HW164016   6.760   5.065   7.364
19723SOL    HW264017   6.665   4.978   7.265
19724SOL     OW64018   5.816   5.158   6.124
19724SOL    HW164019   5.790   5.254   6.124
19724SOL    HW264020   5.745   5.104   6.169
19725SOL     OW64021   5.826   4.815   6.472
19725SOL    HW164022   5.840   4.731   6.524
19725SOL    HW264023   5.771   4.879   6.527
19726SOL     OW64024   6.206   5.510   7.025
19726SOL    HW164025   6.114   5.493   7.060
19726SOL    HW264026   6.234   5.602   7.051
19727SOL     OW64027   6.192   4.688   5.709
19727SOL    HW164028   6.199   4.772   5.655
19727SOL    HW264029   6.238   4.701   5.797
19728SOL     OW64030   7.180   3.838   7.066
19728SOL    HW164031   7.162   3.905   6.994
19728SOL    HW264032   7.177   3.884   7.155
19729SOL     OW64033   5.708   4.367   6.149
19729SOL    HW164034   5.663   4.279   6.166
19729SOL    HW264035   5.707   4.421   6.233
19730SOL     OW64036   7.428   5.491   5.945
19730SOL    HW164037   7.482   5.462   6.025
19730SOL    HW264038   7.458   5.581   5.916
19731SOL     OW64039   5.613   5.320   5.703
19731SOL    HW164040   5.594   5.224   5.724
19731SOL    HW264041   5.580   5.378   5.778
19732SOL     OW64042   7.275   4.646   6.198
19732SOL    HW164043   7.370   4.617   6.206
19732SOL    HW264044   7.267   4.711   6.123
19733SOL     OW64045   5.699   4.461   7.183
19733SOL    HW164046   5.787   4.448   7.228
19733SOL    HW264047   5.686   4.558   7.161
19734SOL     OW64048   6.199   5.089   6.312
19734SOL    HW164049   6.150   5.002   6.321
19734SOL    HW264050   6.176   5.132   6.225
19735SOL     OW64051   6.879   4.952   7.009
19735SOL    HW164052   6.916   4.879   6.951
19735SOL    HW264053   6.931   4.957   7.094
19736SOL     OW64054   6.395   3.728   6.088
19736SOL    HW164055   6.435   3.819   6.079
19736SOL    HW264056   6.295   3.736   6.094
19737SOL     OW64057   5.783   4.700   6.850
19737SOL    HW164058   5.872   4.655   6.836
19737SOL    HW264059   5.710   4.635   6.831
19738SOL     OW64060   7.111   4.723   5.776
19738SOL    HW164061   7.048   4.647   5.789
19738SOL    HW264062   7.159   4.741   5.862
19739SOL     OW64063   6.773   5.516   7.202
19739SOL    HW164064   6.797   5.576   7.126
19739SOL    HW264065   6.780   5.421   7.172
19740SOL     OW64066   5.903   3.975   7.387
19740SOL    HW164067   5.974   4.046   7.393
19740SOL    HW264068   5.815   4.014   7.415
19741SOL     OW64069   7.052   5.141   6.539
19741SOL    HW164070   6.993   5.147   6.619
19741SOL    HW264071   7.037   5.053   6.493
19742SOL     OW64072   7.253   5.438   6.158
19742SOL    HW164073   7.212   5.415   6.070
19742SOL    HW264074   7.235   5.364   6.223
19743SOL     OW64075   6.184   4.453   5.856
19743SOL    HW164076   6.208   4.522   5.788
19743SOL    HW264077   6.106   4.486   5.910
19744SOL     OW64078   6.867   4.069   6.530
19744SOL    HW164079   6.781   4.019   6.517
19744SOL    HW264080   6.929   4.015   6.586
19745SOL     OW64081   7.162   5.386   5.893
19745SOL    HW164082   7.251   5.432   5.896
19745SOL    HW264083   7.141   5.362   5.798
19746SOL     OW64084   6.393   4.329   7.051
19746SOL    HW164085   6.346   4.326   7.140
19746SOL    HW264086   6.342   4.274   6.985
19747SOL     OW64087   6.980   4.193   7.260
19747SOL    HW164088   6.960   4.236   7.348
19747SOL    HW264089   7.058   4.131   7.269
19748SOL     OW64090   6.559   4.614   7.158
19748SOL    HW164091   6.605   4.530   7.129
19748SOL    HW264092   6.503   4.648   7.083
19749SOL     OW64093   6.577   4.134   6.828
19749SOL    HW164094   6.500   4.168   6.882
19749SOL    HW264095   6.543   4.083   6.749
19750SOL     OW64096   6.627   4.425   6.015
19750SOL    HW164097   6.653   4.421   6.111
19750SOL    HW264098   6.542   4.374   6.001
19751SOL     OW64099   5.662   4.535   6.375
19751SOL    HW164100   5.761   4.523   6.384
19751SOL    HW264101   5.638   4.630   6.396
19752SOL     OW64102   5.716   5.545   7.157
19752SOL    HW164103   5.706   5.530   7.256
19752SOL    HW264104   5.630   5.581   7.121
19753SOL     OW64105   6.451   4.072   5.781
19753SOL    HW164106   6.510   4.135   5.732
19753SOL    HW264107   6.470   3.978   5.752
19754SOL     OW64108   7.305   4.309   7.417
19754SOL    HW164109   7.279   4.398   7.381
19754SOL    HW264110   7.303   4.241   7.344
19755SOL     OW64111   6.948   4.868   6.131
19755SOL    HW164112   7.031   4.839   6.083
19755SOL    HW264113   6.899   4.935   6.075
19756SOL     OW64114   6.136   3.920   6.471
19756SOL    HW164115   6.131   3.915   6.571
19756SOL    HW264116   6.138   4.016   6.442
19757SOL     OW64117   6.594   5.180   6.063
19757SOL    HW164118   6.548   5.252   6.011
19757SOL    HW264119   6.590   5.200   6.161
19758SOL     OW64120   5.937   5.525   6.439
19758SOL    HW164121   5.987   5.439   6.445
19758SOL    HW264122   6.002   5.602   6.436
19759SOL     OW64123   7.381   4.790   6.459
19759SOL    HW164124   7.319   4.775   6.383
19759SOL    HW264125   7.329   4.801   6.544
19760SOL     OW64126   6.813   5.274   7.092
19760SOL    HW164127   6.819   5.197   7.156
19760SOL    HW264128   6.761   5.248   7.012
19761SOL     OW64129   5.907   4.667   5.828
19761SOL    HW164130   5.989   4.706   5.786
19761SOL    HW264131   5.880   4.585   5.779
19762SOL     OW64132   7.044   4.459   6.314
19762SOL    HW164133   7.039   4.394   6.389
19762SOL    HW264134   7.124   4.518   6.327
19763SOL     OW64135   6.047   4.990   7.313
19763SOL    HW164136   5.997   4.991   7.227
19763SOL    HW264137   5.984   4.972   7.389
19764SOL     OW64138   6.697   5.500   5.823
19764SOL    HW164139   6.637   5.438   5.873
19764SOL    HW264140   6.728   5.456   5.738
19765SOL     OW64141   5.788   4.009   7.084
19765SOL    HW164142   5.708   4.069   7.071
19765SOL    HW264143   5.778   3.960   7.170
19766SOL     OW64144   7.218   5.101   5.667
19766SOL    HW164145   7.186   5.195   5.657
19766SOL    HW264146   7.142   5.038   5.655
19767SOL     OW64147   6.050   5.467   5.909
19767SOL    HW164148   6.083   5.506   5.995
19767SOL    HW264149   6.126   5.460   5.844
19768SOL     OW64150   6.986   3.831   6.012
19768SOL    HW164151   6.962   3.794   5.922
19768SOL    HW264152   7.085   3.847   6.016
19769SOL     OW64153   5.835   5.509   6.827
19769SOL    HW164154   5.892   5.444   6.877
19769SOL    HW264155   5.819   5.476   6.734
19770SOL     OW64156   6.526   5.422   6.490
19770SOL    HW164157   6.606   5.365   6.511
19770SOL    HW264158   6.477   5.382   6.413
19771SOL     OW64159   5.968   4.424   6.066
19771SOL    HW164160   6.013   4.334   6.063
19771SOL    HW264161   5.874   4.413   6.099
19772SOL     OW64162   6.200   3.846   5.703
19772SOL    HW164163   6.298   3.824   5.710
19772SOL    HW264164   6.169   3.829   5.610
19773SOL     OW64165   6.367   3.988   7.335
19773SOL    HW164166   6.434   3.927   7.378
19773SOL    HW264167   6.294   4.007   7.400
19774SOL     OW64168   6.474   5.238   6.781
19774SOL    HW164169   6.451   5.213   6.687
19774SOL    HW264170   6.535   5.169   6.820
19775SOL     OW64171   6.937   4.314   7.019
19775SOL    HW164172   6.965   4.271   7.104
19775SOL    HW264173   6.962   4.410   7.020
19776SOL     OW64174   6.389   5.126   6.510
19776SOL    HW164175   6.479   5.140   6.468
19776SOL    HW264176   6.318   5.128   6.439
19777SOL     OW64177   6.508   4.227   6.485
19777SOL    HW164178   6.483   4.218   6.389
19777SOL    HW264179   6.556   4.145   6.516
19778SOL     OW64180   6.125   3.788   6.098
19778SOL    HW164181   6.044   3.789   6.156
19778SOL    HW264182   6.128   3.871   6.043
19779SOL     OW64183   7.020   4.912   5.627
19779SOL    HW164184   7.052   4.836   5.684
19779SOL    HW264185   6.928   4.939   5.657
19780SOL     OW64186   5.883   3.759   5.757
19780SOL    HW164187   5.932   3.843   5.736
19780SOL    HW264188   5.945   3.694   5.802
19781SOL     OW64189   6.521   3.960   6.066
19781SOL    HW164190   6.473   4.001   5.988
19781SOL    HW264191   6.620   3.958   6.047
19782SOL     OW64192   6.662   4.407   7.050
19782SOL    HW164193   6.582   4.346   7.053
19782SOL    HW264194   6.743   4.354   7.026
19783SOL     OW64195   6.813   5.294   6.379
19783SOL    HW164196   6.834   5.368   6.314
19783SOL    HW264197   6.881   5.294   6.452
19784SOL     OW64198   6.045   4.876   6.327
19784SOL    HW164199   5.974   4.849   6.392
19784SOL    HW264200   6.019   4.848   6.234
19785SOL     OW64201   6.857   5.521   6.177
19785SOL    HW164202   6.901   5.585   6.113
19785SOL    HW264203   6.807   5.573   6.247
19786SOL     OW64204   6.618   4.273   5.602
19786SOL    HW164205   6.577   4.355   5.563
19786SOL    HW264206   6.682   4.299   5.675
19787SOL     OW64207   6.147   3.946   6.733
19787SOL    HW164208   6.185   3.862   6.770
19787SOL    HW264209   6.059   3.965   6.777
19788SOL     OW64210   6.452   4.178   6.228
19788SOL    HW164211   6.420   4.250   6.166
19788SOL    HW264212   6.476   4.097   6.175
19789SOL     OW64213   6.603   3.763   6.339
19789SOL    HW164214   6.531   3.768   6.270
19789SOL    HW264215   6.579   3.694   6.408
19790SOL     OW64216   7.015   4.897   6.453
19790SOL    HW164217   6.960   4.813   6.446
19790SOL    HW264218   7.041   4.926   6.361
19791SOL     OW64219   7.052   4.314   6.578
19791SOL    HW164220   7.022   4.219   6.585
19791SOL    HW264221   7.125   4.330   6.644
19792SOL     OW64222   7.443   4.557   5.963
19792SOL    HW164223   7.485   4.493   6.027
19792SOL    HW264224   7.405   4.506   5.885
19793SOL     OW64225   6.074   5.109   5.760
19793SOL    HW164226   5.987   5.094   5.807
19793SOL    HW264227   6.057   5.135   5.665
19794SOL     OW64228   7.250   5.004   6.243
19794SOL    HW164229   7.349   5.012   6.257
19794SOL    HW264230   7.205   5.088   6.274
19795SOL     OW64231   6.976   4.299   5.664
19795SOL    HW164232   6.922   4.278   5.745
19795SOL    HW264233   7.067   4.258   5.673
19796SOL     OW64234   6.113   3.980   5.914
19796SOL    HW164235   6.140   3.921   5.839
19796SOL    HW264236   6.113   4.075   5.883
19797SOL     OW64237   7.340   4.947   7.174
19797SOL    HW164238   7.431   4.908   7.161
19797SOL    HW264239   7.348   5.043   7.198
19798SOL     OW64240   6.650   5.071   6.926
19798SOL    HW164241   6.570   5.048   6.981
19798SOL    HW264242   6.733   5.045   6.975
19799SOL     OW64243   7.178   5.353   7.211
19799SOL    HW164244   7.205   5.387   7.121
19799SOL    HW264245   7.257   5.315   7.257
19800SOL     OW64246   6.697   4.919   6.686
19800SOL    HW164247   6.657   4.963   6.767
19800SOL    HW264248   6.656   4.956   6.603
19801SOL     OW64249   7.224   4.823   6.665
19801SOL    HW164250   7.229   4.904   6.724
19801SOL    HW264251   7.138   4.825   6.614
19802SOL     OW64252   6.501   3.813   6.988
19802SOL    HW164253   6.526   3.793   6.893
19802SOL    HW264254   6.573   3.869   7.030
19803SOL     OW64255   6.566   4.840   7.305
19803SOL    HW164256   6.467   4.846   7.315
19803SOL    HW264257   6.589   4.760   7.249
19804SOL     OW64258   6.291   4.774   5.954
19804SOL    HW164259   6.277   4.781   6.053
19804SOL    HW264260   6.375   4.723   5.936
19805SOL     OW64261   5.996   4.537   6.837
19805SOL    HW164262   6.082   4.549   6.887
19805SOL    HW264263   5.954   4.450   6.864
19806SOL     OW64264   6.860   4.110   6.848
19806SOL    HW164265   6.881   4.184   6.912
19806SOL    HW264266   6.771   4.127   6.805
19807SOL     OW64267   5.650   5.288   6.917
19807SOL    HW164268   5.604   5.370   6.883
19807SOL    HW264269   5.748   5.307   6.926
19808SOL     OW64270   6.152   4.261   6.451
19808SOL    HW164271   6.164   4.327   6.377
19808SOL    HW264272   6.198   4.295   6.534
19809SOL     OW64273   6.838   5.072   5.974
19809SOL    HW164274   6.888   5.149   6.014
19809SOL    HW264275   6.743   5.074   6.006
19810SOL     OW64276   6.858   5.169   6.728
19810SOL    HW164277   6.905   5.182   6.815
19810SOL    HW264278   6.792   5.095   6.737
19811SOL     OW64279   7.168   4.363   6.058
19811SOL    HW164280   7.137   4.424   6.131
19811SOL    HW264281   7.218   4.415   5.989
19812SOL     OW64282   5.940   5.234   6.915
19812SOL    HW164283   5.919   5.190   6.828
19812SOL    HW264284   6.037   5.260   6.918
19813SOL     OW64285   5.988   4.475   7.184
19813SOL    HW164286   6.056   4.530   7.137
19813SOL    HW264287   6.028   4.387   7.211
19814SOL     OW64288   7.173   4.503   7.256
19814SOL    HW164289   7.081   4.541   7.251
19814SOL    HW264290   7.233   4.550   7.191
19815SOL     OW64291   6.599   3.829   7.356
19815SOL    HW164292   6.605   3.914   7.304
19815SOL    HW264293   6.631   3.753   7.299
19816SOL     OW64294   6.090   3.774   7.326
19816SOL    HW164295   6.048   3.717   7.256
19816SOL    HW264296   6.024   3.843   7.358
19817SOL     OW64297   6.159   4.594   6.615
19817SOL    HW164298   6.203   4.683   6.606
19817SOL    HW264299   6.096   4.594   6.692
19818SOL     OW64300   6.946   4.586   6.631
19818SOL    HW164301   6.871   4.586   6.565
19818SOL    HW264302   6.983   4.494   6.640
19819SOL     OW64303   6.795   4.249   5.861
19819SOL    HW164304   6.808   4.165   5.915
19819SOL    HW264305   6.766   4.323   5.921
19820SOL     OW64306   5.893   3.937   6.817
19820SOL    HW164307   5.870   3.974   6.907
19820SOL    HW264308   5.863   3.842   6.811
19821SOL     OW64309   5.623   5.034   6.868
19821SOL    HW164310   5.676   4.985   6.936
19821SOL    HW264311   5.645   5.132   6.873
19822SOL     OW64312   6.318   4.358   6.650
19822SOL    HW164313   6.377   4.332   6.574
19822SOL    HW264314   6.290   4.454   6.639
19823SOL     OW64315   7.314   4.659   7.440
19823SOL    HW164316   7.268   4.652   7.351
19823SOL    HW264317   7.252   4.703   7.506
19824SOL     OW64318   5.893   3.787   6.204
19824SOL    HW164319   5.882   3.881   6.237
19824SOL    HW264320   5.888   3.724   6.281
19825SOL     OW64321   7.208   4.091   5.960
19825SOL    HW164322   7.210   4.015   6.024
19825SOL    HW264323   7.160   4.168   6.000
19826SOL     OW64324   6.609   4.490   6.552
19826SOL    HW164325   6.624   4.511   6.648
19826SOL    HW264326   6.579   4.395   6.543
19827SOL     OW64327   6.566   5.297   7.286
19827SOL    HW164328   6.546   5.341   7.198
19827SOL    HW264329   6.605   5.206   7.270
19828SOL     OW64330   7.445   5.242   7.191
19828SOL    HW164331   7.459   5.269   7.096
19828SOL    HW264332   7.528   5.264   7.244
19829SOL     OW64333   5.936   4.622   7.390
19829SOL    HW164334   6.012   4.666   7.438
19829SOL    HW264335   5.971   4.575   7.308
19830SOL     OW64336   7.126   3.998   5.711
19830SOL    HW164337   7.065   3.923   5.734
19830SOL    HW264338   7.148   4.050   5.794
19831SOL     OW64339   6.889   4.562   5.628
19831SOL    HW164340   6.923   4.469   5.643
19831SOL    HW264341   6.907   4.589   5.533
19832SOL     OW64342   6.654   5.057   6.435
19832SOL    HW164343   6.661   4.973   6.380
19832SOL    HW264344   6.716   5.126   6.399
19833SOL     OW64345   5.905   4.534   6.535
19833SOL    HW164346   5.998   4.570   6.540
19833SOL    HW264347   5.899   4.449   6.587
19834SOL     OW64348   5.925   4.233   6.592
19834SOL    HW164349   5.873   4.150   6.575
19834SOL    HW264350   6.002   4.238   6.528
19835SOL     OW64351   6.724   4.104   7.264
19835SOL    HW164352   6.679   4.167   7.328
19835SOL    HW264353   6.817   4.135   7.247
19836SOL     OW64354   6.746   3.931   7.063
19836SOL    HW164355   6.746   3.995   7.140
19836SOL    HW264356   6.774   3.979   6.980
19837SOL     OW64357   5.594   5.050   5.786
19837SOL    HW164358   5.501   5.071   5.755
19837SOL    HW264359   5.604   4.951   5.799
19838SOL     OW64360   5.674   5.525   6.513
19838SOL    HW164361   5.632   5.439   6.486
19838SOL    HW264362   5.768   5.528   6.479
19839SOL     OW64363   6.090   5.292   6.496
19839SOL    HW164364   6.156   5.366   6.505
19839SOL    HW264365   6.134   5.213   6.454
19840SOL     OW64366   6.588   4.520   6.824
19840SOL    HW164367   6.629   4.488   6.910
19840SOL    HW264368   6.492   4.493   6.821
19841SOL     OW64369   5.626   4.268   6.700
19841SOL    HW164370   5.711   4.235   6.659
19841SOL    HW264371   5.639   4.283   6.798
19842SOL     OW64372   5.775   4.244   7.308
19842SOL    HW164373   5.834   4.204   7.238
19842SOL    HW264374   5.717   4.315   7.267
19843SOL     OW64375   6.955   4.674   7.246
19843SOL    HW164376   6.994   4.763   7.266
19843SOL    HW264377   6.965   4.654   7.149
19844SOL     OW64378   6.401   4.296   5.911
19844SOL    HW164379   6.408   4.207   5.865
19844SOL    HW264380   6.307   4.330   5.903
19845SOL     OW64381   7.243   4.328   6.792
19845SOL    HW164382   7.205   4.259   6.854
19845SOL    HW264383   7.325   4.292   6.748
19846SOL     OW64384   5.838   5.288   7.330
19846SOL    HW164385   5.808   5.345   7.406
19846SOL    HW264386   5.831   5.191   7.356
19847SOL     OW64387   6.257   4.188   6.855
19847SOL    HW164388   6.223   4.099   6.825
19847SOL    HW264389   6.283   4.242   6.775
19848SOL     OW64390   6.516   5.402   7.051
19848SOL    HW164391   6.492   5.384   6.956
19848SOL    HW264392   6.546   5.496   7.061
19849SOL     OW64393   6.059   4.224   5.777
19849SOL    HW164394   6.120   4.304   5.781
19849SOL    HW264395   5.964   4.255   5.784
19850SOL     OW64396   5.745   4.861   7.052
19850SOL    HW164397   5.767   4.800   7.128
19850SOL    HW264398   5.755   4.812   6.966
19851SOL     OW64399   6.933   4.783   6.820
19851SOL    HW164400   6.957   4.720   6.746
19851SOL    HW264401   6.843   4.823   6.802
19852SOL     OW64402   6.888   4.579   5.895
19852SOL    HW164403   6.802   4.548   5.937
19852SOL    HW264404   6.884   4.565   5.796
19853SOL     OW64405   7.345   5.471   6.740
19853SOL    HW164406   7.406   5.501   6.667
19853SOL    HW264407   7.307   5.382   6.718
19854SOL     OW64408   6.838   5.455   6.714
19854SOL    HW164409   6.922   5.460   6.660
19854SOL    HW264410   6.815   5.359   6.732
19855SOL     OW64411   5.669   4.982   6.608
19855SOL    HW164412   5.664   4.981   6.708
19855SOL    HW264413   5.586   4.941   6.570
19856SOL     OW64414   6.274   5.386   7.302
19856SOL    HW164415   6.218   5.467   7.311
19856SOL    HW264416   6.326   5.390   7.216
19857SOL     OW64417   7.312   3.859   6.109
19857SOL    HW164418   7.385   3.842   6.042
19857SOL    HW264419   7.281   3.772   6.147
19858SOL     OW64420   6.974   5.297   6.063
19858SOL    HW164421   7.041   5.309   5.989
19858SOL    HW264422   6.934   5.386   6.086
19859SOL     OW64423   5.716   5.518   7.437
19859SOL    HW164424   5.675   5.444   7.490
19859SOL    HW264425   5.780   5.569   7.495
19860SOL     OW64426   6.866   4.651   6.258
19860SOL    HW164427   6.926   4.570   6.260
19860SOL    HW264428   6.906   4.720   6.198
19861SOL     OW64429   6.416   4.997   7.008
19861SOL    HW164430   6.411   5.030   7.103
19861SOL    HW264431   6.330   5.016   6.962
19862SOL     OW64432   6.258   5.340   5.740
19862SOL    HW164433   6.267   5.350   5.641
19862SOL    HW264434   6.218   5.251   5.761
19863SOL     OW64435   7.236   5.444   6.980
19863SOL    HW164436   7.289   5.454   6.896
19863SOL    HW264437   7.209   5.534   7.014
19864SOL     OW64438   5.849   4.050   6.306
19864SOL    HW164439   5.770   4.101   6.272
19864SOL    HW264440   5.840   4.035   6.404
19865SOL     OW64441   6.780   5.336   5.617
19865SOL    HW164442   6.786   5.243   5.654
19865SOL    HW264443   6.721   5.336   5.537
19866SOL     OW64444   6.408   4.726   6.958
19866SOL    HW164445   6.448   4.725   6.866
19866SOL    HW264446   6.418   4.818   6.998
19867SOL     OW64447   6.502   4.634   5.877
19867SOL    HW164448   6.565   4.672   5.809
19867SOL    HW264449   6.542   4.551   5.916
19868SOL     OW64450   7.090   5.331   5.630
19868SOL    HW164451   6.998   5.368   5.637
19868SOL    HW264452   7.128   5.351   5.540
19869SOL     OW64453   5.958   5.012   7.076
19869SOL    HW164454   5.945   5.105   7.042
19869SOL    HW264455   5.874   4.960   7.063
19870SOL     OW64456   7.200   5.016   6.875
19870SOL    HW164457   7.260   5.019   6.955
19870SOL    HW264458   7.125   5.080   6.888
19871SOL     OW64459   6.625   4.822   6.282
19871SOL    HW164460   6.555   4.775   6.336
19871SOL    HW264461   6.684   4.754   6.239
19872SOL     OW64462   6.600   3.960   6.557
19872SOL    HW164463   6.592   3.924   6.464
19872SOL    HW264464   6.598   3.884   6.622
19873SOL     OW64465   6.176   5.211   6.077
19873SOL    HW164466   6.218   5.153   6.007
19873SOL    HW264467   6.132   5.290   6.033
19874SOL     OW64468   7.295   4.109   6.967
19874SOL    HW164469   7.368   4.178   6.971
19874SOL    HW264470   7.323   4.034   6.908
19875SOL     OW64471   5.841   5.072   5.876
19875SOL    HW164472   5.745   5.073   5.849
19875SOL    HW264473   5.853   5.125   5.960
19876SOL     OW64474   5.691   4.737   7.312
19876SOL    HW164475   5.614   4.704   7.366
19876SOL    HW264476   5.776   4.707   7.354
19877SOL     OW64477   6.258   3.927   7.075
19877SOL    HW164478   6.348   3.911   7.035
19877SOL    HW264479   6.266   3.932   7.174
19878SOL     OW64480   5.661   4.069   5.619
19878SOL    HW164481   5.569   4.041   5.590
19878SOL    HW264482   5.692   4.146   5.563
19879SOL     OW64483   7.026   4.580   6.984
19879SOL    HW164484   6.969   4.632   6.921
19879SOL    HW264485   7.122   4.592   6.960
19880SOL     OW64486   5.658   3.890   5.904
19880SOL    HW164487   5.641   3.973   5.850
19880SOL    HW264488   5.748   3.853   5.882
19881SOL     OW64489   6.769   5.059   5.705
19881SOL    HW164490   6.670   5.048   5.707
19881SOL    HW264491   6.803   5.074   5.798
19882SOL     OW64492   6.199   4.566   7.017
19882SOL    HW164493   6.255   4.647   7.000
19882SOL    HW264494   6.258   4.486   7.020
19883SOL     OW64495   7.079   5.491   6.545
19883SOL    HW164496   7.112   5.555   6.476
19883SOL    HW264497   7.145   5.485   6.620
19884SOL     OW64498   6.302   4.289   7.294
19884SOL    HW164499   6.321   4.354   7.368
19884SOL    HW264500   6.362   4.209   7.303
19885SOL     OW64501   7.036   4.944   7.219
19885SOL    HW164502   7.027   4.934   7.318
19885SOL    HW264503   7.132   4.937   7.193
19886SOL     OW64504   5.976   5.465   7.146
19886SOL    HW164505   5.885   5.506   7.144
19886SOL    HW264506   5.969   5.371   7.178
19887SOL     OW64507   7.260   4.607   6.840
19887SOL    HW164508   7.233   4.518   6.803
19887SOL    HW264509   7.261   4.675   6.767
19888SOL     OW64510   6.811   4.049   6.035
19888SOL    HW164511   6.876   3.975   6.024
19888SOL    HW264512   6.831   4.099   6.119
19889SOL     OW64513   6.180   4.469   6.238
19889SOL    HW164514   6.230   4.554   6.219
19889SOL    HW264515   6.092   4.471   6.190
19890SOL     OW64516   7.363   4.066   7.228
19890SOL    HW164517   7.346   4.097   7.134
19890SOL    HW264518   7.279   4.029   7.266
19891SOL     OW64519   7.316   4.658   7.103
19891SOL    HW164520   7.354   4.749   7.118
19891SOL    HW264521   7.308   4.641   7.004
19892SOL     OW64522   6.445   5.098   5.602
19892SOL    HW164523   6.399   5.113   5.690
19892SOL    HW264524   6.489   5.183   5.572
19893SOL     OW64525   6.247   5.514   6.539
19893SOL    HW164526   6.201   5.602   6.526
19893SOL    HW264527   6.346   5.526   6.532
19894SOL     OW64528   6.445   4.680   6.447
19894SOL    HW164529   6.499   4.611   6.495
19894SOL    HW264530   6.413   4.749   6.513
19895SOL     OW64531   6.669   4.708   5.673
19895SOL    HW164532   6.646   4.761   5.591
19895SOL    HW264533   6.750   4.652   5.654
19896SOL     OW64534   7.447   5.293   6.437
19896SOL    HW164535   7.376   5.281   6.367
19896SOL    HW264536   7.448   5.214   6.497
19897SOL     OW64537   5.807   5.038   7.430
19897SOL    HW164538   5.742   4.965   7.409
19897SOL    HW264539   5.811   5.052   7.528
19898SOL     OW64540   5.665   4.964   6.239
19898SOL    HW164541   5.664   4.917   6.327
19898SOL    HW264542   5.747   4.936   6.188
19899SOL     OW64543   7.410   3.916   6.813
19899SOL    HW164544   7.406   3.826   6.857
19899SOL    HW264545   7.413   3.905   6.714
19900SOL     OW64546   6.014   4.148   6.106
19900SOL    HW164547   6.044   4.076   6.044
19900SOL    HW264548   5.975   4.108   6.189
19901SOL     OW64549   7.291   5.211   6.690
19901SOL    HW164550   7.198   5.186   6.663
19901SOL    HW264551   7.317   5.161   6.772
19902SOL     OW64552   5.903   4.271   6.866
19902SOL    HW164553   5.941   4.212   6.938
19902SOL    HW264554   5.943   4.245   6.778
19903SOL     OW64555   6.398   5.310   6.273
19903SOL    HW164556   6.430   5.320   6.179
19903SOL    HW264557   6.319   5.248   6.275
19904SOL     OW64558   7.010   3.938   6.698
19904SOL    HW164559   7.062   3.873   6.753
19904SOL    HW264560   6.961   4.001   6.759
19905SOL     OW64561   6.587   3.758   6.740
19905SOL    HW164562   6.524   3.686   6.709
19905SOL    HW264563   6.680   3.722   6.740
19906SOL     OW64564   6.356   5.054   5.887
19906SOL    HW164565   6.310   4.967   5.904
19906SOL    HW264566   6.447   5.051   5.928
19907SOL     OW64567   6.204   5.291   6.870
19907SOL    HW164568   6.199   5.373   6.927
19907SOL    HW264569   6.293   5.288   6.825
19908SOL     OW64570   6.938   3.776   5.754
19908SOL    HW164571   6.973   3.735   5.670
19908SOL    HW264572   6.848   3.738   5.774
19909SOL     OW64573   6.886   4.177   6.277
19909SOL    HW164574   6.827   4.257   6.281
19909SOL    HW264575   6.901   4.142   6.370
19910SOL     OW64576   7.179   3.945   6.468
19910SOL    HW164577   7.095   3.944   6.522
19910SOL    HW264578   7.181   4.028   6.412
19911SOL     OW64579   5.625   4.801   5.886
19911SOL    HW164580   5.724   4.790   5.877
19911SOL    HW264581   5.585   4.715   5.918
19912SOL     OW64582   6.461   5.370   5.923
19912SOL    HW164583   6.384   5.335   5.869
19912SOL    HW264584   6.429   5.441   5.985
19913SOL     OW64585   5.816   4.352   7.561
19913SOL    HW164586   5.723   4.350   7.598
19913SOL    HW264587   5.817   4.313   7.469
19914SOL     OW64588   5.811   3.999   8.444
19914SOL    HW164589   5.846   3.982   8.536
19914SOL    HW264590   5.723   3.954   8.432
19915SOL     OW64591   5.605   4.092   8.095
19915SOL    HW164592   5.523   4.135   8.134
19915SOL    HW264593   5.577   4.019   8.032
19916SOL     OW64594   6.155   4.999   8.613
19916SOL    HW164595   6.062   4.992   8.576
19916SOL    HW264596   6.166   5.088   8.657
19917SOL     OW64597   7.141   5.235   8.151
19917SOL    HW164598   7.084   5.219   8.232
19917SOL    HW264599   7.082   5.245   8.071
19918SOL     OW64600   6.721   4.427   8.165
19918SOL    HW164601   6.778   4.505   8.140
19918SOL    HW264602   6.661   4.453   8.241
19919SOL     OW64603   7.341   4.331   7.679
19919SOL    HW164604   7.329   4.318   7.580
19919SOL    HW264605   7.311   4.250   7.728
19920SOL     OW64606   6.354   4.868   8.471
19920SOL    HW164607   6.276   4.885   8.531
19920SOL    HW264608   6.388   4.955   8.435
19921SOL     OW64609   6.436   4.522   9.271
19921SOL    HW164610   6.432   4.598   9.336
19921SOL    HW264611   6.458   4.558   9.180
19922SOL     OW64612   6.271   4.736   8.113
19922SOL    HW164613   6.340   4.720   8.183
19922SOL    HW264614   6.198   4.793   8.151
19923SOL     OW64615   6.272   4.885   9.251
19923SOL    HW164616   6.332   4.964   9.265
19923SOL    HW264617   6.186   4.916   9.210
19924SOL     OW64618   5.921   5.159   8.509
19924SOL    HW164619   5.843   5.128   8.456
19924SOL    HW264620   5.979   5.217   8.452
19925SOL     OW64621   7.046   5.229   8.787
19925SOL    HW164622   7.070   5.323   8.813
19925SOL    HW264623   7.030   5.175   8.869
19926SOL     OW64624   6.024   4.116   8.947
19926SOL    HW164625   6.106   4.060   8.956
19926SOL    HW264626   5.943   4.058   8.951
19927SOL     OW64627   7.189   4.171   8.185
19927SOL    HW164628   7.115   4.217   8.135
19927SOL    HW264629   7.240   4.239   8.238
19928SOL     OW64630   5.817   5.437   7.931
19928SOL    HW164631   5.851   5.514   7.985
19928SOL    HW264632   5.861   5.437   7.841
19929SOL     OW64633   6.713   5.065   9.138
19929SOL    HW164634   6.760   5.065   9.226
19929SOL    HW264635   6.665   4.978   9.127
19930SOL     OW64636   5.816   5.158   7.986
19930SOL    HW164637   5.790   5.254   7.986
19930SOL    HW264638   5.745   5.104   8.031
19931SOL     OW64639   5.826   4.815   8.334
19931SOL    HW164640   5.840   4.731   8.386
19931SOL    HW264641   5.771   4.879   8.389
19932SOL     OW64642   6.206   5.510   8.887
19932SOL    HW164643   6.114   5.493   8.922
19932SOL    HW264644   6.234   5.602   8.913
19933SOL     OW64645   6.192   4.688   7.571
19933SOL    HW164646   6.199   4.772   7.517
19933SOL    HW264647   6.238   4.701   7.659
19934SOL     OW64648   7.180   3.838   8.928
19934SOL    HW164649   7.162   3.905   8.856
19934SOL    HW264650   7.177   3.884   9.017
19935SOL     OW64651   5.708   4.367   8.011
19935SOL    HW164652   5.663   4.279   8.028
19935SOL    HW264653   5.707   4.421   8.095
19936SOL     OW64654   7.428   5.491   7.807
19936SOL    HW164655   7.482   5.462   7.887
19936SOL    HW264656   7.458   5.581   7.778
19937SOL     OW64657   5.613   5.320   7.565
19937SOL    HW164658   5.594   5.224   7.586
19937SOL    HW264659   5.580   5.378   7.640
19938SOL     OW64660   7.275   4.646   8.060
19938SOL    HW164661   7.370   4.617   8.068
19938SOL    HW264662   7.267   4.711   7.985
19939SOL     OW64663   7.227   4.832   7.880
19939SOL    HW164664   7.313   4.834   7.828
19939SOL    HW264665   7.241   4.879   7.968
19940SOL     OW64666   5.699   4.461   9.045
19940SOL    HW164667   5.787   4.448   9.090
19940SOL    HW264668   5.686   4.558   9.023
19941SOL     OW64669   6.199   5.089   8.174
19941SOL    HW164670   6.150   5.002   8.183
19941SOL    HW264671   6.176   5.132   8.087
19942SOL     OW64672   6.879   4.952   8.871
19942SOL    HW164673   6.916   4.879   8.813
19942SOL    HW264674   6.931   4.957   8.956
19943SOL     OW64675   6.395   3.728   7.950
19943SOL    HW164676   6.435   3.819   7.941
19943SOL    HW264677   6.295   3.736   7.956
19944SOL     OW64678   5.783   4.700   8.712
19944SOL    HW164679   5.872   4.655   8.698
19944SOL    HW264680   5.710   4.635   8.693
19945SOL     OW64681   7.111   4.723   7.638
19945SOL    HW164682   7.048   4.647   7.651
19945SOL    HW264683   7.159   4.741   7.724
19946SOL     OW64684   6.773   5.516   9.064
19946SOL    HW164685   6.797   5.576   8.988
19946SOL    HW264686   6.780   5.421   9.034
19947SOL     OW64687   5.903   3.975   9.249
19947SOL    HW164688   5.974   4.046   9.255
19947SOL    HW264689   5.815   4.014   9.277
19948SOL     OW64690   7.253   5.438   8.020
19948SOL    HW164691   7.212   5.415   7.932
19948SOL    HW264692   7.235   5.364   8.085
19949SOL     OW64693   6.184   4.453   7.718
19949SOL    HW164694   6.208   4.522   7.650
19949SOL    HW264695   6.106   4.486   7.772
19950SOL     OW64696   6.867   4.069   8.392
19950SOL    HW164697   6.781   4.019   8.379
19950SOL    HW264698   6.929   4.015   8.448
19951SOL     OW64699   7.162   5.386   7.755
19951SOL    HW164700   7.251   5.432   7.758
19951SOL    HW264701   7.141   5.362   7.660
19952SOL     OW64702   6.393   4.329   8.913
19952SOL    HW164703   6.346   4.326   9.002
19952SOL    HW264704   6.342   4.274   8.847
19953SOL     OW64705   6.980   4.193   9.122
19953SOL    HW164706   6.960   4.236   9.210
19953SOL    HW264707   7.058   4.131   9.131
19954SOL     OW64708   6.559   4.614   9.020
19954SOL    HW164709   6.605   4.530   8.991
19954SOL    HW264710   6.503   4.648   8.945
19955SOL     OW64711   6.577   4.134   8.690
19955SOL    HW164712   6.500   4.168   8.744
19955SOL    HW264713   6.543   4.083   8.611
19956SOL     OW64714   6.627   4.425   7.877
19956SOL    HW164715   6.653   4.421   7.973
19956SOL    HW264716   6.542   4.374   7.863
19957SOL     OW64717   5.662   4.535   8.237
19957SOL    HW164718   5.761   4.523   8.246
19957SOL    HW264719   5.638   4.630   8.258
19958SOL     OW64720   6.451   4.072   7.643
19958SOL    HW164721   6.510   4.135   7.594
19958SOL    HW264722   6.470   3.978   7.614
19959SOL     OW64723   7.305   4.309   9.279
19959SOL    HW164724   7.279   4.398   9.243
19959SOL    HW264725   7.303   4.241   9.206
19960SOL     OW64726   6.948   4.868   7.993
19960SOL    HW164727   7.031   4.839   7.945
19960SOL    HW264728   6.899   4.935   7.937
19961SOL     OW64729   6.136   3.920   8.333
19961SOL    HW164730   6.131   3.915   8.433
19961SOL    HW264731   6.138   4.016   8.304
19962SOL     OW64732   6.594   5.180   7.925
19962SOL    HW164733   6.548   5.252   7.873
19962SOL    HW264734   6.590   5.200   8.023
19963SOL     OW64735   5.937   5.525   8.301
19963SOL    HW164736   5.987   5.439   8.307
19963SOL    HW264737   6.002   5.602   8.298
19964SOL     OW64738   7.381   4.790   8.321
19964SOL    HW164739   7.319   4.775   8.245
19964SOL    HW264740   7.329   4.801   8.406
19965SOL     OW64741   6.813   5.274   8.954
19965SOL    HW164742   6.819   5.197   9.018
19965SOL    HW264743   6.761   5.248   8.874
19966SOL     OW64744   5.907   4.667   7.690
19966SOL    HW164745   5.989   4.706   7.648
19966SOL    HW264746   5.880   4.585   7.641
19967SOL     OW64747   7.044   4.459   8.176
19967SOL    HW164748   7.039   4.394   8.251
19967SOL    HW264749   7.124   4.518   8.189
19968SOL     OW64750   6.047   4.990   9.175
19968SOL    HW164751   5.997   4.991   9.089
19968SOL    HW264752   5.984   4.972   9.251
19969SOL     OW64753   6.697   5.500   7.685
19969SOL    HW164754   6.637   5.438   7.735
19969SOL    HW264755   6.728   5.456   7.600
19970SOL     OW64756   5.788   4.009   8.946
19970SOL    HW164757   5.708   4.069   8.933
19970SOL    HW264758   5.778   3.960   9.032
19971SOL     OW64759   7.218   5.101   7.529
19971SOL    HW164760   7.186   5.195   7.519
19971SOL    HW264761   7.142   5.038   7.517
19972SOL     OW64762   6.050   5.467   7.771
19972SOL    HW164763   6.083   5.506   7.857
19972SOL    HW264764   6.126   5.460   7.706
19973SOL     OW64765   6.986   3.831   7.874
19973SOL    HW164766   6.962   3.794   7.784
19973SOL    HW264767   7.085   3.847   7.878
19974SOL     OW64768   5.835   5.509   8.689
19974SOL    HW164769   5.892   5.444   8.739
19974SOL    HW264770   5.819   5.476   8.596
19975SOL     OW64771   6.526   5.422   8.352
19975SOL    HW164772   6.606   5.365   8.373
19975SOL    HW264773   6.477   5.382   8.275
19976SOL     OW64774   7.133   3.946   9.177
19976SOL    HW164775   7.128   3.983   9.269
19976SOL    HW264776   7.061   3.877   9.165
19977SOL     OW64777   6.200   3.846   7.565
19977SOL    HW164778   6.298   3.824   7.572
19977SOL    HW264779   6.169   3.829   7.472
19978SOL     OW64780   6.367   3.988   9.197
19978SOL    HW164781   6.434   3.927   9.240
19978SOL    HW264782   6.294   4.007   9.262
19979SOL     OW64783   6.474   5.238   8.643
19979SOL    HW164784   6.451   5.213   8.549
19979SOL    HW264785   6.535   5.169   8.682
19980SOL     OW64786   6.937   4.314   8.881
19980SOL    HW164787   6.965   4.271   8.966
19980SOL    HW264788   6.962   4.410   8.882
19981SOL     OW64789   6.389   5.126   8.372
19981SOL    HW164790   6.479   5.140   8.330
19981SOL    HW264791   6.318   5.128   8.301
19982SOL     OW64792   6.125   3.788   7.960
19982SOL    HW164793   6.044   3.789   8.018
19982SOL    HW264794   6.128   3.871   7.905
19983SOL     OW64795   7.020   4.912   7.489
19983SOL    HW164796   7.052   4.836   7.546
19983SOL    HW264797   6.928   4.939   7.519
19984SOL     OW64798   5.883   3.759   7.619
19984SOL    HW164799   5.932   3.843   7.598
19984SOL    HW264800   5.945   3.694   7.664
19985SOL     OW64801   6.521   3.960   7.928
19985SOL    HW164802   6.473   4.001   7.850
19985SOL    HW264803   6.620   3.958   7.909
19986SOL     OW64804   6.662   4.407   8.912
19986SOL    HW164805   6.582   4.346   8.915
19986SOL    HW264806   6.743   4.354   8.888
19987SOL     OW64807   6.813   5.294   8.241
19987SOL    HW164808   6.834   5.368   8.176
19987SOL    HW264809   6.881   5.294   8.314
19988SOL     OW64810   6.045   4.876   8.189
19988SOL    HW164811   5.974   4.849   8.254
19988SOL    HW264812   6.019   4.848   8.096
19989SOL     OW64813   6.857   5.521   8.039
19989SOL    HW164814   6.901   5.585   7.975
19989SOL    HW264815   6.807   5.573   8.109
19990SOL     OW64816   6.618   4.273   7.464
19990SOL    HW164817   6.577   4.355   7.425
19990SOL    HW264818   6.682   4.299   7.537
19991SOL     OW64819   6.147   3.946   8.595
19991SOL    HW164820   6.185   3.862   8.632
19991SOL    HW264821   6.059   3.965   8.639
19992SOL     OW64822   6.452   4.178   8.090
19992SOL    HW164823   6.420   4.250   8.028
19992SOL    HW264824   6.476   4.097   8.037
19993SOL     OW64825   6.603   3.763   8.201
19993SOL    HW164826   6.531   3.768   8.132
19993SOL    HW264827   6.579   3.694   8.270
19994SOL     OW64828   7.015   4.897   8.315
19994SOL    HW164829   6.960   4.813   8.308
19994SOL    HW264830   7.041   4.926   8.223
19995SOL     OW64831   7.052   4.314   8.440
19995SOL    HW164832   7.022   4.219   8.447
19995SOL    HW264833   7.125   4.330   8.506
19996SOL     OW64834   7.443   4.557   7.825
19996SOL    HW164835   7.485   4.493   7.889
19996SOL    HW264836   7.405   4.506   7.747
19997SOL     OW64837   6.074   5.109   7.622
19997SOL    HW164838   5.987   5.094   7.669
19997SOL    HW264839   6.057   5.135   7.527
19998SOL     OW64840   7.250   5.004   8.105
19998SOL    HW164841   7.349   5.012   8.119
19998SOL    HW264842   7.205   5.088   8.136
19999SOL     OW64843   6.976   4.299   7.526
19999SOL    HW164844   6.922   4.278   7.607
19999SOL    HW264845   7.067   4.258   7.535
20000SOL     OW64846   6.113   3.980   7.776
20000SOL    HW164847   6.140   3.921   7.701
20000SOL    HW264848   6.113   4.075   7.745
20001SOL     OW64849   7.340   4.947   9.036
20001SOL    HW164850   7.431   4.908   9.023
20001SOL    HW264851   7.348   5.043   9.060
20002SOL     OW64852   6.650   5.071   8.788
20002SOL    HW164853   6.570   5.048   8.843
20002SOL    HW264854   6.733   5.045   8.837
20003SOL     OW64855   7.178   5.353   9.073
20003SOL    HW164856   7.205   5.387   8.983
20003SOL    HW264857   7.257   5.315   9.119
20004SOL     OW64858   6.697   4.919   8.548
20004SOL    HW164859   6.657   4.963   8.629
20004SOL    HW264860   6.656   4.956   8.465
20005SOL     OW64861   7.224   4.823   8.527
20005SOL    HW164862   7.229   4.904   8.586
20005SOL    HW264863   7.138   4.825   8.476
20006SOL     OW64864   6.501   3.813   8.850
20006SOL    HW164865   6.526   3.793   8.755
20006SOL    HW264866   6.573   3.869   8.892
20007SOL     OW64867   6.566   4.840   9.167
20007SOL    HW164868   6.467   4.846   9.177
20007SOL    HW264869   6.589   4.760   9.111
20008SOL     OW64870   6.291   4.774   7.816
20008SOL    HW164871   6.277   4.781   7.915
20008SOL    HW264872   6.375   4.723   7.798
20009SOL     OW64873   5.996   4.537   8.699
20009SOL    HW164874   6.082   4.549   8.749
20009SOL    HW264875   5.954   4.450   8.726
20010SOL     OW64876   6.860   4.110   8.710
20010SOL    HW164877   6.881   4.184   8.774
20010SOL    HW264878   6.771   4.127   8.667
20011SOL     OW64879   5.650   5.288   8.779
20011SOL    HW164880   5.604   5.370   8.745
20011SOL    HW264881   5.748   5.307   8.788
20012SOL     OW64882   5.953   4.824   7.949
20012SOL    HW164883   5.946   4.907   7.893
20012SOL    HW264884   5.957   4.744   7.889
20013SOL     OW64885   6.152   4.261   8.313
20013SOL    HW164886   6.164   4.327   8.239
20013SOL    HW264887   6.198   4.295   8.396
20014SOL     OW64888   6.838   5.072   7.836
20014SOL    HW164889   6.888   5.149   7.876
20014SOL    HW264890   6.743   5.074   7.868
20015SOL     OW64891   6.858   5.169   8.590
20015SOL    HW164892   6.905   5.182   8.677
20015SOL    HW264893   6.792   5.095   8.599
20016SOL     OW64894   7.168   4.363   7.920
20016SOL    HW164895   7.137   4.424   7.993
20016SOL    HW264896   7.218   4.415   7.851
20017SOL     OW64897   5.940   5.234   8.777
20017SOL    HW164898   5.919   5.190   8.690
20017SOL    HW264899   6.037   5.260   8.780
20018SOL     OW64900   5.988   4.475   9.046
20018SOL    HW164901   6.056   4.530   8.999
20018SOL    HW264902   6.028   4.387   9.073
20019SOL     OW64903   7.173   4.503   9.118
20019SOL    HW164904   7.081   4.541   9.113
20019SOL    HW264905   7.233   4.550   9.053
20020SOL     OW64906   6.599   3.829   9.218
20020SOL    HW164907   6.605   3.914   9.166
20020SOL    HW264908   6.631   3.753   9.161
20021SOL     OW64909   6.090   3.774   9.188
20021SOL    HW164910   6.048   3.717   9.118
20021SOL    HW264911   6.024   3.843   9.220
20022SOL     OW64912   6.159   4.594   8.477
20022SOL    HW164913   6.203   4.683   8.468
20022SOL    HW264914   6.096   4.594   8.554
20023SOL     OW64915   6.946   4.586   8.493
20023SOL    HW164916   6.871   4.586   8.427
20023SOL    HW264917   6.983   4.494   8.502
20024SOL     OW64918   6.795   4.249   7.723
20024SOL    HW164919   6.808   4.165   7.777
20024SOL    HW264920   6.766   4.323   7.783
20025SOL     OW64921   5.893   3.937   8.679
20025SOL    HW164922   5.870   3.974   8.769
20025SOL    HW264923   5.863   3.842   8.673
20026SOL     OW64924   5.623   5.034   8.730
20026SOL    HW164925   5.676   4.985   8.798
20026SOL    HW264926   5.645   5.132   8.735
20027SOL     OW64927   6.318   4.358   8.512
20027SOL    HW164928   6.377   4.332   8.436
20027SOL    HW264929   6.290   4.454   8.501
20028SOL     OW64930   7.314   4.659   9.302
20028SOL    HW164931   7.268   4.652   9.213
20028SOL    HW264932   7.252   4.703   9.368
20029SOL     OW64933   5.893   3.787   8.066
20029SOL    HW164934   5.882   3.881   8.099
20029SOL    HW264935   5.888   3.724   8.143
20030SOL     OW64936   7.208   4.091   7.822
20030SOL    HW164937   7.210   4.015   7.886
20030SOL    HW264938   7.160   4.168   7.862
20031SOL     OW64939   6.609   4.490   8.414
20031SOL    HW164940   6.624   4.511   8.510
20031SOL    HW264941   6.579   4.395   8.405
20032SOL     OW64942   6.566   5.297   9.148
20032SOL    HW164943   6.546   5.341   9.060
20032SOL    HW264944   6.605   5.206   9.132
20033SOL     OW64945   7.445   5.242   9.053
20033SOL    HW164946   7.459   5.269   8.958
20033SOL    HW264947   7.528   5.264   9.106
20034SOL     OW64948   5.936   4.622   9.252
20034SOL    HW164949   6.012   4.666   9.300
20034SOL    HW264950   5.971   4.575   9.170
20035SOL     OW64951   7.126   3.998   7.573
20035SOL    HW164952   7.065   3.923   7.596
20035SOL    HW264953   7.148   4.050   7.656
20036SOL     OW64954   6.889   4.562   7.490
20036SOL    HW164955   6.923   4.469   7.505
20036SOL    HW264956   6.907   4.589   7.395
20037SOL     OW64957   6.654   5.057   8.297
20037SOL    HW164958   6.661   4.973   8.242
20037SOL    HW264959   6.716   5.126   8.261
20038SOL     OW64960   5.905   4.534   8.397
20038SOL    HW164961   5.998   4.570   8.402
20038SOL    HW264962   5.899   4.449   8.449
20039SOL     OW64963   5.925   4.233   8.454
20039SOL    HW164964   5.873   4.150   8.437
20039SOL    HW264965   6.002   4.238   8.390
20040SOL     OW64966   6.724   4.104   9.126
20040SOL    HW164967   6.679   4.167   9.190
20040SOL    HW264968   6.817   4.135   9.109
20041SOL     OW64969   6.746   3.931   8.925
20041SOL    HW164970   6.746   3.995   9.002
20041SOL    HW264971   6.774   3.979   8.842
20042SOL     OW64972   5.594   5.050   7.648
20042SOL    HW164973   5.501   5.071   7.617
20042SOL    HW264974   5.604   4.951   7.661
20043SOL     OW64975   5.674   5.525   8.375
20043SOL    HW164976   5.632   5.439   8.348
20043SOL    HW264977   5.768   5.528   8.341
20044SOL     OW64978   6.090   5.292   8.358
20044SOL    HW164979   6.156   5.366   8.367
20044SOL    HW264980   6.134   5.213   8.316
20045SOL     OW64981   6.588   4.520   8.686
20045SOL    HW164982   6.629   4.488   8.772
20045SOL    HW264983   6.492   4.493   8.683
20046SOL     OW64984   5.626   4.268   8.562
20046SOL    HW164985   5.711   4.235   8.521
20046SOL    HW264986   5.639   4.283   8.660
20047SOL     OW64987   5.775   4.244   9.170
20047SOL    HW164988   5.834   4.204   9.100
20047SOL    HW264989   5.717   4.315   9.129
20048SOL     OW64990   6.955   4.674   9.108
20048SOL    HW164991   6.994   4.763   9.128
20048SOL    HW264992   6.965   4.654   9.011
20049SOL     OW64993   6.401   4.296   7.773
20049SOL    HW164994   6.408   4.207   7.727
20049SOL    HW264995   6.307   4.330   7.765
20050SOL     OW64996   7.243   4.328   8.654
20050SOL    HW164997   7.205   4.259   8.716
20050SOL    HW264998   7.325   4.292   8.610
20051SOL     OW64999   5.838   5.288   9.192
20051SOL    HW165000   5.808   5.345   9.268
20051SOL    HW265001   5.831   5.191   9.218
20052SOL     OW65002   6.257   4.188   8.717
20052SOL    HW165003   6.223   4.099   8.687
20052SOL    HW265004   6.283   4.242   8.637
20053SOL     OW65005   6.516   5.402   8.913
20053SOL    HW165006   6.492   5.384   8.818
20053SOL    HW265007   6.546   5.496   8.923
20054SOL     OW65008   6.059   4.224   7.639
20054SOL    HW165009   6.120   4.304   7.643
20054SOL    HW265010   5.964   4.255   7.646
20055SOL     OW65011   5.745   4.861   8.914
20055SOL    HW165012   5.767   4.800   8.990
20055SOL    HW265013   5.755   4.812   8.828
20056SOL     OW65014   6.933   4.783   8.682
20056SOL    HW165015   6.957   4.720   8.608
20056SOL    HW265016   6.843   4.823   8.664
20057SOL     OW65017   6.888   4.579   7.757
20057SOL    HW165018   6.802   4.548   7.799
20057SOL    HW265019   6.884   4.565   7.658
20058SOL     OW65020   7.345   5.471   8.602
20058SOL    HW165021   7.406   5.501   8.529
20058SOL    HW265022   7.307   5.382   8.580
20059SOL     OW65023   6.838   5.455   8.576
20059SOL    HW165024   6.922   5.460   8.522
20059SOL    HW265025   6.815   5.359   8.594
20060SOL     OW65026   5.669   4.982   8.470
20060SOL    HW165027   5.664   4.981   8.570
20060SOL    HW265028   5.586   4.941   8.432
20061SOL     OW65029   6.274   5.386   9.164
20061SOL    HW165030   6.218   5.467   9.173
20061SOL    HW265031   6.326   5.390   9.078
20062SOL     OW65032   7.312   3.859   7.971
20062SOL    HW165033   7.385   3.842   7.904
20062SOL    HW265034   7.281   3.772   8.009
20063SOL     OW65035   6.974   5.297   7.925
20063SOL    HW165036   7.041   5.309   7.851
20063SOL    HW265037   6.934   5.386   7.948
20064SOL     OW65038   6.866   4.651   8.120
20064SOL    HW165039   6.926   4.570   8.122
20064SOL    HW265040   6.906   4.720   8.060
20065SOL     OW65041   6.416   4.997   8.870
20065SOL    HW165042   6.411   5.030   8.965
20065SOL    HW265043   6.330   5.016   8.824
20066SOL     OW65044   6.258   5.340   7.602
20066SOL    HW165045   6.267   5.350   7.503
20066SOL    HW265046   6.218   5.251   7.623
20067SOL     OW65047   7.236   5.444   8.842
20067SOL    HW165048   7.289   5.454   8.758
20067SOL    HW265049   7.209   5.534   8.876
20068SOL     OW65050   7.427   3.899   8.411
20068SOL    HW165051   7.466   3.814   8.375
20068SOL    HW265052   7.329   3.901   8.392
20069SOL     OW65053   5.849   4.050   8.168
20069SOL    HW165054   5.770   4.101   8.134
20069SOL    HW265055   5.840   4.035   8.266
20070SOL     OW65056   6.780   5.336   7.479
20070SOL    HW165057   6.786   5.243   7.516
20070SOL    HW265058   6.721   5.336   7.399
20071SOL     OW65059   6.408   4.726   8.820
20071SOL    HW165060   6.448   4.725   8.728
20071SOL    HW265061   6.418   4.818   8.860
20072SOL     OW65062   6.502   4.634   7.739
20072SOL    HW165063   6.565   4.672   7.671
20072SOL    HW265064   6.542   4.551   7.778
20073SOL     OW65065   7.090   5.331   7.492
20073SOL    HW165066   6.998   5.368   7.499
20073SOL    HW265067   7.128   5.351   7.402
20074SOL     OW65068   5.958   5.012   8.938
20074SOL    HW165069   5.945   5.105   8.904
20074SOL    HW265070   5.874   4.960   8.925
20075SOL     OW65071   7.200   5.016   8.737
20075SOL    HW165072   7.260   5.019   8.817
20075SOL    HW265073   7.125   5.080   8.750
20076SOL     OW65074   6.625   4.822   8.144
20076SOL    HW165075   6.555   4.775   8.198
20076SOL    HW265076   6.684   4.754   8.101
20077SOL     OW65077   6.600   3.960   8.419
20077SOL    HW165078   6.592   3.924   8.326
20077SOL    HW265079   6.598   3.884   8.484
20078SOL     OW65080   7.295   4.109   8.829
20078SOL    HW165081   7.368   4.178   8.833
20078SOL    HW265082   7.323   4.034   8.770
20079SOL     OW65083   5.841   5.072   7.738
20079SOL    HW165084   5.745   5.073   7.711
20079SOL    HW265085   5.853   5.125   7.822
20080SOL     OW65086   5.691   4.737   9.174
20080SOL    HW165087   5.614   4.704   9.228
20080SOL    HW265088   5.776   4.707   9.216
20081SOL     OW65089   6.258   3.927   8.937
20081SOL    HW165090   6.348   3.911   8.897
20081SOL    HW265091   6.266   3.932   9.036
20082SOL     OW65092   5.661   4.069   7.481
20082SOL    HW165093   5.569   4.041   7.452
20082SOL    HW265094   5.692   4.146   7.425
20083SOL     OW65095   7.026   4.580   8.846
20083SOL    HW165096   6.969   4.632   8.783
20083SOL    HW265097   7.122   4.592   8.822
20084SOL     OW65098   5.658   3.890   7.766
20084SOL    HW165099   5.641   3.973   7.712
20084SOL    HW265100   5.748   3.853   7.744
20085SOL     OW65101   6.769   5.059   7.567
20085SOL    HW165102   6.670   5.048   7.569
20085SOL    HW265103   6.803   5.074   7.660
20086SOL     OW65104   6.199   4.566   8.879
20086SOL    HW165105   6.255   4.647   8.862
20086SOL    HW265106   6.258   4.486   8.882
20087SOL     OW65107   7.079   5.491   8.407
20087SOL    HW165108   7.112   5.555   8.338
20087SOL    HW265109   7.145   5.485   8.482
20088SOL     OW65110   6.302   4.289   9.156
20088SOL    HW165111   6.321   4.354   9.230
20088SOL    HW265112   6.362   4.209   9.165
20089SOL     OW65113   7.036   4.944   9.081
20089SOL    HW165114   7.027   4.934   9.180
20089SOL    HW265115   7.132   4.937   9.055
20090SOL     OW65116   5.976   5.465   9.008
20090SOL    HW165117   5.885   5.506   9.006
20090SOL    HW265118   5.969   5.371   9.040
20091SOL     OW65119   7.260   4.607   8.702
20091SOL    HW165120   7.233   4.518   8.665
20091SOL    HW265121   7.261   4.675   8.629
20092SOL     OW65122   6.811   4.049   7.897
20092SOL    HW165123   6.876   3.975   7.886
20092SOL    HW265124   6.831   4.099   7.981
20093SOL     OW65125   6.180   4.469   8.100
20093SOL    HW165126   6.230   4.554   8.081
20093SOL    HW265127   6.092   4.471   8.052
20094SOL     OW65128   7.363   4.066   9.090
20094SOL    HW165129   7.346   4.097   8.996
20094SOL    HW265130   7.279   4.029   9.128
20095SOL     OW65131   7.316   4.658   8.965
20095SOL    HW165132   7.354   4.749   8.980
20095SOL    HW265133   7.308   4.641   8.866
20096SOL     OW65134   6.445   5.098   7.464
20096SOL    HW165135   6.399   5.113   7.552
20096SOL    HW265136   6.489   5.183   7.434
20097SOL     OW65137   6.247   5.514   8.401
20097SOL    HW165138   6.201   5.602   8.388
20097SOL    HW265139   6.346   5.526   8.394
20098SOL     OW65140   6.445   4.680   8.309
20098SOL    HW165141   6.499   4.611   8.357
20098SOL    HW265142   6.413   4.749   8.375
20099SOL     OW65143   6.669   4.708   7.535
20099SOL    HW165144   6.646   4.761   7.453
20099SOL    HW265145   6.750   4.652   7.516
20100SOL     OW65146   7.447   5.293   8.299
20100SOL    HW165147   7.376   5.281   8.229
20100SOL    HW265148   7.448   5.214   8.359
20101SOL     OW65149   5.807   5.038   9.292
20101SOL    HW165150   5.742   4.965   9.271
20101SOL    HW265151   5.811   5.052   9.390
20102SOL     OW65152   5.665   4.964   8.101
20102SOL    HW165153   5.664   4.917   8.189
20102SOL    HW265154   5.747   4.936   8.050
20103SOL     OW65155   6.258   5.115   9.072
20103SOL    HW165156   6.180   5.065   9.110
20103SOL    HW265157   6.255   5.210   9.103
20104SOL     OW65158   7.410   3.916   8.675
20104SOL    HW165159   7.406   3.826   8.719
20104SOL    HW265160   7.413   3.905   8.576
20105SOL     OW65161   6.014   4.148   7.968
20105SOL    HW165162   6.044   4.076   7.906
20105SOL    HW265163   5.975   4.108   8.051
20106SOL     OW65164   7.291   5.211   8.552
20106SOL    HW165165   7.198   5.186   8.525
20106SOL    HW265166   7.317   5.161   8.634
20107SOL     OW65167   5.903   4.271   8.728
20107SOL    HW165168   5.941   4.212   8.800
20107SOL    HW265169   5.943   4.245   8.640
20108SOL     OW65170   6.398   5.310   8.135
20108SOL    HW165171   6.430   5.320   8.041
20108SOL    HW265172   6.319   5.248   8.137
20109SOL     OW65173   7.010   3.938   8.560
20109SOL    HW165174   7.062   3.873   8.615
20109SOL    HW265175   6.961   4.001   8.621
20110SOL     OW65176   6.587   3.758   8.602
20110SOL    HW165177   6.524   3.686   8.571
20110SOL    HW265178   6.680   3.722   8.602
20111SOL     OW65179   6.356   5.054   7.749
20111SOL    HW165180   6.310   4.967   7.766
20111SOL    HW265181   6.447   5.051   7.790
20112SOL     OW65182   6.204   5.291   8.732
20112SOL    HW165183   6.199   5.373   8.789
20112SOL    HW265184   6.293   5.288   8.687
20113SOL     OW65185   6.938   3.776   7.616
20113SOL    HW165186   6.973   3.735   7.532
20113SOL    HW265187   6.848   3.738   7.636
20114SOL     OW65188   6.886   4.177   8.139
20114SOL    HW165189   6.827   4.257   8.143
20114SOL    HW265190   6.901   4.142   8.232
20115SOL     OW65191   7.179   3.945   8.330
20115SOL    HW165192   7.095   3.944   8.384
20115SOL    HW265193   7.181   4.028   8.274
20116SOL     OW65194   5.625   4.801   7.748
20116SOL    HW165195   5.724   4.790   7.739
20116SOL    HW265196   5.585   4.715   7.780
20117SOL     OW65197   6.461   5.370   7.785
20117SOL    HW165198   6.384   5.335   7.731
20117SOL    HW265199   6.429   5.441   7.847
20118SOL     OW65200   5.816   4.352   9.423
20118SOL    HW165201   5.723   4.350   9.460
20118SOL    HW265202   5.817   4.313   9.331
20119SOL     OW65203   7.341   4.331   9.541
20119SOL    HW165204   7.329   4.318   9.442
20119SOL    HW265205   7.311   4.250   9.590
20120SOL     OW65206   5.817   5.437   9.793
20120SOL    HW165207   5.851   5.514   9.847
20120SOL    HW265208   5.861   5.437   9.703
20121SOL     OW65209   6.192   4.688   9.433
20121SOL    HW165210   6.199   4.772   9.379
20121SOL    HW265211   6.238   4.701   9.521
20122SOL     OW65212   5.708   4.367   9.873
20122SOL    HW165213   5.663   4.279   9.890
20122SOL    HW265214   5.707   4.421   9.957
20123SOL     OW65215   7.428   5.491   9.669
20123SOL    HW165216   7.482   5.462   9.749
20123SOL    HW265217   7.458   5.581   9.640
20124SOL     OW65218   7.275   4.646   9.922
20124SOL    HW165219   7.370   4.617   9.930
20124SOL    HW265220   7.267   4.711   9.847
20125SOL     OW65221   7.227   4.832   9.742
20125SOL    HW165222   7.313   4.834   9.690
20125SOL    HW265223   7.241   4.879   9.830
20126SOL     OW65224   6.199   5.089  10.036
20126SOL    HW165225   6.150   5.002  10.045
20126SOL    HW265226   6.176   5.132   9.949
20127SOL     OW65227   6.395   3.728   9.812
20127SOL    HW165228   6.435   3.819   9.803
20127SOL    HW265229   6.295   3.736   9.818
20128SOL     OW65230   7.111   4.723   9.500
20128SOL    HW165231   7.048   4.647   9.513
20128SOL    HW265232   7.159   4.741   9.586
20129SOL     OW65233   6.184   4.453   9.580
20129SOL    HW165234   6.208   4.522   9.512
20129SOL    HW265235   6.106   4.486   9.634
20130SOL     OW65236   7.162   5.386   9.617
20130SOL    HW165237   7.251   5.432   9.620
20130SOL    HW265238   7.141   5.362   9.522
20131SOL     OW65239   6.627   4.425   9.739
20131SOL    HW165240   6.653   4.421   9.835
20131SOL    HW265241   6.542   4.374   9.725
20132SOL     OW65242   5.662   4.535  10.099
20132SOL    HW165243   5.761   4.523  10.108
20132SOL    HW265244   5.638   4.630  10.120
20133SOL     OW65245   6.451   4.072   9.505
20133SOL    HW165246   6.510   4.135   9.456
20133SOL    HW265247   6.470   3.978   9.476
20134SOL     OW65248   6.948   4.868   9.855
20134SOL    HW165249   7.031   4.839   9.807
20134SOL    HW265250   6.899   4.935   9.799
20135SOL     OW65251   6.594   5.180   9.787
20135SOL    HW165252   6.548   5.252   9.735
20135SOL    HW265253   6.590   5.200   9.885
20136SOL     OW65254   5.937   5.525  10.163
20136SOL    HW165255   5.987   5.439  10.169
20136SOL    HW265256   6.002   5.602  10.160
20137SOL     OW65257   5.907   4.667   9.552
20137SOL    HW165258   5.989   4.706   9.510
20137SOL    HW265259   5.880   4.585   9.503
20138SOL     OW65260   6.697   5.500   9.547
20138SOL    HW165261   6.637   5.438   9.597
20138SOL    HW265262   6.728   5.456   9.462
20139SOL     OW65263   6.050   5.467   9.633
20139SOL    HW165264   6.083   5.506   9.719
20139SOL    HW265265   6.126   5.460   9.568
20140SOL     OW65266   6.986   3.831   9.736
20140SOL    HW165267   6.962   3.794   9.646
20140SOL    HW265268   7.085   3.847   9.740
20141SOL     OW65269   5.968   4.424   9.790
20141SOL    HW165270   6.013   4.334   9.787
20141SOL    HW265271   5.874   4.413   9.823
20142SOL     OW65272   6.200   3.846   9.427
20142SOL    HW165273   6.298   3.824   9.434
20142SOL    HW265274   6.169   3.829   9.334
20143SOL     OW65275   6.125   3.788   9.822
20143SOL    HW165276   6.044   3.789   9.880
20143SOL    HW265277   6.128   3.871   9.767
20144SOL     OW65278   7.020   4.912   9.351
20144SOL    HW165279   7.052   4.836   9.408
20144SOL    HW265280   6.928   4.939   9.381
20145SOL     OW65281   5.883   3.759   9.481
20145SOL    HW165282   5.932   3.843   9.460
20145SOL    HW265283   5.945   3.694   9.526
20146SOL     OW65284   6.521   3.960   9.790
20146SOL    HW165285   6.473   4.001   9.712
20146SOL    HW265286   6.620   3.958   9.771
20147SOL     OW65287   6.045   4.876  10.051
20147SOL    HW165288   5.974   4.849  10.116
20147SOL    HW265289   6.019   4.848   9.958
20148SOL     OW65290   6.857   5.521   9.901
20148SOL    HW165291   6.901   5.585   9.837
20148SOL    HW265292   6.807   5.573   9.971
20149SOL     OW65293   6.618   4.273   9.326
20149SOL    HW165294   6.577   4.355   9.287
20149SOL    HW265295   6.682   4.299   9.399
20150SOL     OW65296   6.452   4.178   9.952
20150SOL    HW165297   6.420   4.250   9.890
20150SOL    HW265298   6.476   4.097   9.899
20151SOL     OW65299   7.443   4.557   9.687
20151SOL    HW165300   7.485   4.493   9.751
20151SOL    HW265301   7.405   4.506   9.609
20152SOL     OW65302   6.074   5.109   9.484
20152SOL    HW165303   5.987   5.094   9.531
20152SOL    HW265304   6.057   5.135   9.389
20153SOL     OW65305   6.976   4.299   9.388
20153SOL    HW165306   6.922   4.278   9.469
20153SOL    HW265307   7.067   4.258   9.397
20154SOL     OW65308   6.113   3.980   9.638
20154SOL    HW165309   6.140   3.921   9.563
20154SOL    HW265310   6.113   4.075   9.607
20155SOL     OW65311   6.291   4.774   9.678
20155SOL    HW165312   6.277   4.781   9.777
20155SOL    HW265313   6.375   4.723   9.660
20156SOL     OW65314   6.838   5.072   9.698
20156SOL    HW165315   6.888   5.149   9.738
20156SOL    HW265316   6.743   5.074   9.730
20157SOL     OW65317   7.168   4.363   9.782
20157SOL    HW165318   7.137   4.424   9.855
20157SOL    HW265319   7.218   4.415   9.713
20158SOL     OW65320   6.795   4.249   9.585
20158SOL    HW165321   6.808   4.165   9.639
20158SOL    HW265322   6.766   4.323   9.645
20159SOL     OW65323   5.893   3.787   9.928
20159SOL    HW165324   5.882   3.881   9.961
20159SOL    HW265325   5.888   3.724  10.005
20160SOL     OW65326   7.208   4.091   9.684
20160SOL    HW165327   7.210   4.015   9.748
20160SOL    HW265328   7.160   4.168   9.724
20161SOL     OW65329   7.126   3.998   9.435
20161SOL    HW165330   7.065   3.923   9.458
20161SOL    HW265331   7.148   4.050   9.518
20162SOL     OW65332   6.889   4.562   9.352
20162SOL    HW165333   6.923   4.469   9.367
20162SOL    HW265334   6.907   4.589   9.257
20163SOL     OW65335   6.401   4.296   9.635
20163SOL    HW165336   6.408   4.207   9.589
20163SOL    HW265337   6.307   4.330   9.627
20164SOL     OW65338   6.059   4.224   9.501
20164SOL    HW165339   6.120   4.304   9.505
20164SOL    HW265340   5.964   4.255   9.508
20165SOL     OW65341   6.888   4.579   9.619
20165SOL    HW165342   6.802   4.548   9.661
20165SOL    HW265343   6.884   4.565   9.520
20166SOL     OW65344   7.312   3.859   9.833
20166SOL    HW165345   7.385   3.842   9.766
20166SOL    HW265346   7.281   3.772   9.871
20167SOL     OW65347   6.974   5.297   9.787
20167SOL    HW165348   7.041   5.309   9.713
20167SOL    HW265349   6.934   5.386   9.810
20168SOL     OW65350   6.258   5.340   9.464
20168SOL    HW165351   6.267   5.350   9.365
20168SOL    HW265352   6.218   5.251   9.485
20169SOL     OW65353   6.780   5.336   9.341
20169SOL    HW165354   6.786   5.243   9.378
20169SOL    HW265355   6.721   5.336   9.261
20170SOL     OW65356   6.502   4.634   9.601
20170SOL    HW165357   6.565   4.672   9.533
20170SOL    HW265358   6.542   4.551   9.640
20171SOL     OW65359   7.090   5.331   9.354
20171SOL    HW165360   6.998   5.368   9.361
20171SOL    HW265361   7.128   5.351   9.264
20172SOL     OW65362   6.176   5.211   9.801
20172SOL    HW165363   6.218   5.153   9.731
20172SOL    HW265364   6.132   5.290   9.757
20173SOL     OW65365   5.661   4.069   9.343
20173SOL    HW165366   5.569   4.041   9.314
20173SOL    HW265367   5.692   4.146   9.287
20174SOL     OW65368   5.658   3.890   9.628
20174SOL    HW165369   5.641   3.973   9.574
20174SOL    HW265370   5.748   3.853   9.606
20175SOL     OW65371   6.769   5.059   9.429
20175SOL    HW165372   6.670   5.048   9.431
20175SOL    HW265373   6.803   5.074   9.522
20176SOL     OW65374   6.811   4.049   9.759
20176SOL    HW165375   6.876   3.975   9.748
20176SOL    HW265376   6.831   4.099   9.843
20177SOL     OW65377   6.180   4.469   9.962
20177SOL    HW165378   6.230   4.554   9.943
20177SOL    HW265379   6.092   4.471   9.914
20178SOL     OW65380   6.445   5.098   9.326
20178SOL    HW165381   6.399   5.113   9.414
20178SOL    HW265382   6.489   5.183   9.296
20179SOL     OW65383   6.669   4.708   9.397
20179SOL    HW165384   6.646   4.761   9.315
20179SOL    HW265385   6.750   4.652   9.378
20180SOL     OW65386   6.014   4.148   9.830
20180SOL    HW165387   6.044   4.076   9.768
20180SOL    HW265388   5.975   4.108   9.913
20181SOL     OW65389   6.356   5.054   9.611
20181SOL    HW165390   6.310   4.967   9.628
20181SOL    HW265391   6.447   5.051   9.652
20182SOL     OW65392   6.938   3.776   9.478
20182SOL    HW165393   6.973   3.735   9.394
20182SOL    HW265394   6.848   3.738   9.498
20183SOL     OW65395   6.461   5.370   9.647
20183SOL    HW165396   6.384   5.335   9.593
20183SOL    HW265397   6.429   5.441   9.709
20184SOL     OW65398   5.816   6.214   0.113
20184SOL    HW165399   5.723   6.212   0.150
20184SOL    HW265400   5.817   6.175   0.021
20185SOL     OW65401   5.811   5.861   0.996
20185SOL    HW165402   5.846   5.844   1.088
20185SOL    HW265403   5.723   5.816   0.984
20186SOL     OW65404   5.605   5.954   0.647
20186SOL    HW165405   5.523   5.997   0.686
20186SOL    HW265406   5.577   5.881   0.584
20187SOL     OW65407   6.155   6.861   1.165
20187SOL    HW165408   6.062   6.854   1.128
20187SOL    HW265409   6.166   6.950   1.209
20188SOL     OW65410   7.141   7.097   0.703
20188SOL    HW165411   7.084   7.081   0.784
20188SOL    HW265412   7.082   7.107   0.623
20189SOL     OW65413   6.721   6.289   0.717
20189SOL    HW165414   6.778   6.367   0.692
20189SOL    HW265415   6.661   6.315   0.793
20190SOL     OW65416   7.341   6.193   0.231
20190SOL    HW165417   7.329   6.180   0.132
20190SOL    HW265418   7.311   6.112   0.280
20191SOL     OW65419   6.354   6.730   1.023
20191SOL    HW165420   6.276   6.747   1.083
20191SOL    HW265421   6.388   6.817   0.987
20192SOL     OW65422   6.436   6.384   1.823
20192SOL    HW165423   6.432   6.460   1.888
20192SOL    HW265424   6.458   6.420   1.732
20193SOL     OW65425   6.271   6.598   0.665
20193SOL    HW165426   6.340   6.582   0.735
20193SOL    HW265427   6.198   6.655   0.703
20194SOL     OW65428   6.272   6.747   1.803
20194SOL    HW165429   6.332   6.826   1.817
20194SOL    HW265430   6.186   6.778   1.762
20195SOL     OW65431   5.921   7.021   1.061
20195SOL    HW165432   5.843   6.990   1.008
20195SOL    HW265433   5.979   7.079   1.004
20196SOL     OW65434   7.046   7.091   1.339
20196SOL    HW165435   7.070   7.185   1.365
20196SOL    HW265436   7.030   7.037   1.421
20197SOL     OW65437   6.024   5.978   1.499
20197SOL    HW165438   6.106   5.922   1.508
20197SOL    HW265439   5.943   5.920   1.503
20198SOL     OW65440   7.189   6.033   0.737
20198SOL    HW165441   7.115   6.079   0.687
20198SOL    HW265442   7.240   6.101   0.790
20199SOL     OW65443   5.817   7.299   0.483
20199SOL    HW165444   5.851   7.376   0.537
20199SOL    HW265445   5.861   7.299   0.393
20200SOL     OW65446   6.713   6.927   1.690
20200SOL    HW165447   6.760   6.927   1.778
20200SOL    HW265448   6.665   6.840   1.679
20201SOL     OW65449   5.816   7.020   0.538
20201SOL    HW165450   5.790   7.116   0.538
20201SOL    HW265451   5.745   6.966   0.583
20202SOL     OW65452   5.826   6.677   0.886
20202SOL    HW165453   5.840   6.593   0.938
20202SOL    HW265454   5.771   6.741   0.941
20203SOL     OW65455   6.206   7.372   1.439
20203SOL    HW165456   6.114   7.355   1.474
20203SOL    HW265457   6.234   7.464   1.465
20204SOL     OW65458   6.192   6.550   0.123
20204SOL    HW165459   6.199   6.634   0.069
20204SOL    HW265460   6.238   6.563   0.211
20205SOL     OW65461   5.708   6.229   0.563
20205SOL    HW165462   5.663   6.141   0.580
20205SOL    HW265463   5.707   6.283   0.647
20206SOL     OW65464   7.428   7.353   0.359
20206SOL    HW165465   7.482   7.324   0.439
20206SOL    HW265466   7.458   7.443   0.330
20207SOL     OW65467   5.613   7.182   0.117
20207SOL    HW165468   5.594   7.086   0.138
20207SOL    HW265469   5.580   7.240   0.192
20208SOL     OW65470   7.227   6.694   0.432
20208SOL    HW165471   7.313   6.696   0.380
20208SOL    HW265472   7.241   6.741   0.520
20209SOL     OW65473   5.699   6.323   1.597
20209SOL    HW165474   5.787   6.310   1.642
20209SOL    HW265475   5.686   6.420   1.575
20210SOL     OW65476   6.199   6.951   0.726
20210SOL    HW165477   6.150   6.864   0.735
20210SOL    HW265478   6.176   6.994   0.639
20211SOL     OW65479   6.879   6.814   1.423
20211SOL    HW165480   6.916   6.741   1.365
20211SOL    HW265481   6.931   6.819   1.508
20212SOL     OW65482   7.111   6.585   0.190
20212SOL    HW165483   7.048   6.509   0.203
20212SOL    HW265484   7.159   6.603   0.276
20213SOL     OW65485   6.773   7.378   1.616
20213SOL    HW165486   6.797   7.438   1.540
20213SOL    HW265487   6.780   7.283   1.586
20214SOL     OW65488   5.903   5.837   1.801
20214SOL    HW165489   5.974   5.908   1.807
20214SOL    HW265490   5.815   5.876   1.829
20215SOL     OW65491   7.052   7.003   0.953
20215SOL    HW165492   6.993   7.009   1.033
20215SOL    HW265493   7.037   6.915   0.907
20216SOL     OW65494   7.253   7.300   0.572
20216SOL    HW165495   7.212   7.277   0.484
20216SOL    HW265496   7.235   7.226   0.637
20217SOL     OW65497   6.184   6.315   0.270
20217SOL    HW165498   6.208   6.384   0.202
20217SOL    HW265499   6.106   6.348   0.324
20218SOL     OW65500   6.867   5.931   0.944
20218SOL    HW165501   6.781   5.881   0.931
20218SOL    HW265502   6.929   5.877   1.000
20219SOL     OW65503   7.162   7.248   0.307
20219SOL    HW165504   7.251   7.294   0.310
20219SOL    HW265505   7.141   7.224   0.212
20220SOL     OW65506   6.393   6.191   1.465
20220SOL    HW165507   6.346   6.188   1.554
20220SOL    HW265508   6.342   6.136   1.399
20221SOL     OW65509   6.980   6.055   1.674
20221SOL    HW165510   6.960   6.098   1.762
20221SOL    HW265511   7.058   5.993   1.683
20222SOL     OW65512   6.559   6.476   1.572
20222SOL    HW165513   6.605   6.392   1.543
20222SOL    HW265514   6.503   6.510   1.497
20223SOL     OW65515   6.577   5.996   1.242
20223SOL    HW165516   6.500   6.030   1.296
20223SOL    HW265517   6.543   5.945   1.163
20224SOL     OW65518   6.627   6.287   0.429
20224SOL    HW165519   6.653   6.283   0.525
20224SOL    HW265520   6.542   6.236   0.415
20225SOL     OW65521   5.662   6.397   0.789
20225SOL    HW165522   5.761   6.385   0.798
20225SOL    HW265523   5.638   6.492   0.810
20226SOL     OW65524   6.451   5.934   0.195
20226SOL    HW165525   6.510   5.997   0.146
20226SOL    HW265526   6.470   5.840   0.166
20227SOL     OW65527   7.305   6.171   1.831
20227SOL    HW165528   7.279   6.260   1.795
20227SOL    HW265529   7.303   6.103   1.758
20228SOL     OW65530   6.948   6.730   0.545
20228SOL    HW165531   7.031   6.701   0.497
20228SOL    HW265532   6.899   6.797   0.489
20229SOL     OW65533   6.136   5.782   0.885
20229SOL    HW165534   6.131   5.777   0.985
20229SOL    HW265535   6.138   5.878   0.856
20230SOL     OW65536   5.937   7.387   0.853
20230SOL    HW165537   5.987   7.301   0.859
20230SOL    HW265538   6.002   7.464   0.850
20231SOL     OW65539   6.813   7.136   1.506
20231SOL    HW165540   6.819   7.059   1.570
20231SOL    HW265541   6.761   7.110   1.426
20232SOL     OW65542   5.907   6.529   0.242
20232SOL    HW165543   5.989   6.568   0.200
20232SOL    HW265544   5.880   6.447   0.193
20233SOL     OW65545   7.044   6.321   0.728
20233SOL    HW165546   7.039   6.256   0.803
20233SOL    HW265547   7.124   6.380   0.741
20234SOL     OW65548   6.047   6.852   1.727
20234SOL    HW165549   5.997   6.853   1.641
20234SOL    HW265550   5.984   6.834   1.803
20235SOL     OW65551   5.788   5.871   1.498
20235SOL    HW165552   5.708   5.931   1.485
20235SOL    HW265553   5.778   5.822   1.584
20236SOL     OW65554   7.218   6.963   0.081
20236SOL    HW165555   7.186   7.057   0.071
20236SOL    HW265556   7.142   6.900   0.069
20237SOL     OW65557   6.050   7.329   0.323
20237SOL    HW165558   6.083   7.368   0.409
20237SOL    HW265559   6.126   7.322   0.258
20238SOL     OW65560   6.986   5.693   0.426
20238SOL    HW165561   6.962   5.656   0.336
20238SOL    HW265562   7.085   5.709   0.430
20239SOL     OW65563   5.835   7.371   1.241
20239SOL    HW165564   5.892   7.306   1.291
20239SOL    HW265565   5.819   7.338   1.148
20240SOL     OW65566   6.526   7.284   0.904
20240SOL    HW165567   6.606   7.227   0.925
20240SOL    HW265568   6.477   7.244   0.827
20241SOL     OW65569   5.968   6.286   0.480
20241SOL    HW165570   6.013   6.196   0.477
20241SOL    HW265571   5.874   6.275   0.513
20242SOL     OW65572   7.133   5.808   1.729
20242SOL    HW165573   7.128   5.845   1.821
20242SOL    HW265574   7.061   5.739   1.717
20243SOL     OW65575   6.200   5.708   0.117
20243SOL    HW165576   6.298   5.686   0.124
20243SOL    HW265577   6.169   5.691   0.024
20244SOL     OW65578   6.367   5.850   1.749
20244SOL    HW165579   6.434   5.789   1.792
20244SOL    HW265580   6.294   5.869   1.814
20245SOL     OW65581   6.474   7.100   1.195
20245SOL    HW165582   6.451   7.075   1.101
20245SOL    HW265583   6.535   7.031   1.234
20246SOL     OW65584   6.937   6.176   1.433
20246SOL    HW165585   6.965   6.133   1.518
20246SOL    HW265586   6.962   6.272   1.434
20247SOL     OW65587   6.389   6.988   0.924
20247SOL    HW165588   6.479   7.002   0.882
20247SOL    HW265589   6.318   6.990   0.853
20248SOL     OW65590   6.508   6.089   0.899
20248SOL    HW165591   6.483   6.080   0.803
20248SOL    HW265592   6.556   6.007   0.930
20249SOL     OW65593   6.125   5.650   0.512
20249SOL    HW165594   6.044   5.651   0.570
20249SOL    HW265595   6.128   5.733   0.457
20250SOL     OW65596   7.020   6.774   0.041
20250SOL    HW165597   7.052   6.698   0.098
20250SOL    HW265598   6.928   6.801   0.071
20251SOL     OW65599   6.521   5.822   0.480
20251SOL    HW165600   6.473   5.863   0.402
20251SOL    HW265601   6.620   5.820   0.461
20252SOL     OW65602   6.662   6.269   1.464
20252SOL    HW165603   6.582   6.208   1.467
20252SOL    HW265604   6.743   6.216   1.440
20253SOL     OW65605   6.813   7.156   0.793
20253SOL    HW165606   6.834   7.230   0.728
20253SOL    HW265607   6.881   7.156   0.866
20254SOL     OW65608   6.045   6.738   0.741
20254SOL    HW165609   5.974   6.711   0.806
20254SOL    HW265610   6.019   6.710   0.648
20255SOL     OW65611   6.857   7.383   0.591
20255SOL    HW165612   6.901   7.447   0.527
20255SOL    HW265613   6.807   7.435   0.661
20256SOL     OW65614   6.618   6.135   0.016
20256SOL    HW165615   6.577   6.217  -0.023
20256SOL    HW265616   6.682   6.161   0.089
20257SOL     OW65617   5.664   6.142   1.386
20257SOL    HW165618   5.756   6.141   1.345
20257SOL    HW265619   5.658   6.216   1.453
20258SOL     OW65620   6.147   5.808   1.147
20258SOL    HW165621   6.185   5.724   1.184
20258SOL    HW265622   6.059   5.827   1.191
20259SOL     OW65623   6.452   6.040   0.642
20259SOL    HW165624   6.420   6.112   0.580
20259SOL    HW265625   6.476   5.959   0.589
20260SOL     OW65626   6.603   5.625   0.753
20260SOL    HW165627   6.531   5.630   0.684
20260SOL    HW265628   6.579   5.556   0.822
20261SOL     OW65629   7.015   6.759   0.867
20261SOL    HW165630   6.960   6.675   0.860
20261SOL    HW265631   7.041   6.788   0.775
20262SOL     OW65632   7.052   6.176   0.992
20262SOL    HW165633   7.022   6.081   0.999
20262SOL    HW265634   7.125   6.192   1.058
20263SOL     OW65635   7.443   6.419   0.377
20263SOL    HW165636   7.485   6.355   0.441
20263SOL    HW265637   7.405   6.368   0.299
20264SOL     OW65638   6.074   6.971   0.174
20264SOL    HW165639   5.987   6.956   0.221
20264SOL    HW265640   6.057   6.997   0.079
20265SOL     OW65641   7.250   6.866   0.657
20265SOL    HW165642   7.349   6.874   0.671
20265SOL    HW265643   7.205   6.950   0.688
20266SOL     OW65644   6.976   6.161   0.078
20266SOL    HW165645   6.922   6.140   0.159
20266SOL    HW265646   7.067   6.120   0.087
20267SOL     OW65647   6.113   5.842   0.328
20267SOL    HW165648   6.140   5.783   0.253
20267SOL    HW265649   6.113   5.937   0.297
20268SOL     OW65650   7.340   6.809   1.588
20268SOL    HW165651   7.431   6.770   1.575
20268SOL    HW265652   7.348   6.905   1.612
20269SOL     OW65653   6.650   6.933   1.340
20269SOL    HW165654   6.570   6.910   1.395
20269SOL    HW265655   6.733   6.907   1.389
20270SOL     OW65656   7.178   7.215   1.625
20270SOL    HW165657   7.205   7.249   1.535
20270SOL    HW265658   7.257   7.177   1.671
20271SOL     OW65659   6.697   6.781   1.100
20271SOL    HW165660   6.657   6.825   1.181
20271SOL    HW265661   6.656   6.818   1.017
20272SOL     OW65662   7.224   6.685   1.079
20272SOL    HW165663   7.229   6.766   1.138
20272SOL    HW265664   7.138   6.687   1.028
20273SOL     OW65665   6.501   5.675   1.402
20273SOL    HW165666   6.526   5.655   1.307
20273SOL    HW265667   6.573   5.731   1.444
20274SOL     OW65668   6.566   6.702   1.719
20274SOL    HW165669   6.467   6.708   1.729
20274SOL    HW265670   6.589   6.622   1.663
20275SOL     OW65671   6.291   6.636   0.368
20275SOL    HW165672   6.277   6.643   0.467
20275SOL    HW265673   6.375   6.585   0.350
20276SOL     OW65674   5.996   6.399   1.251
20276SOL    HW165675   6.082   6.411   1.301
20276SOL    HW265676   5.954   6.312   1.278
20277SOL     OW65677   6.860   5.972   1.262
20277SOL    HW165678   6.881   6.046   1.326
20277SOL    HW265679   6.771   5.989   1.219
20278SOL     OW65680   5.650   7.150   1.331
20278SOL    HW165681   5.604   7.232   1.297
20278SOL    HW265682   5.748   7.169   1.340
20279SOL     OW65683   5.953   6.686   0.501
20279SOL    HW165684   5.946   6.769   0.445
20279SOL    HW265685   5.957   6.606   0.441
20280SOL     OW65686   6.152   6.123   0.865
20280SOL    HW165687   6.164   6.189   0.791
20280SOL    HW265688   6.198   6.157   0.948
20281SOL     OW65689   6.838   6.934   0.388
20281SOL    HW165690   6.888   7.011   0.428
20281SOL    HW265691   6.743   6.936   0.420
20282SOL     OW65692   6.858   7.031   1.142
20282SOL    HW165693   6.905   7.044   1.229
20282SOL    HW265694   6.792   6.957   1.151
20283SOL     OW65695   7.168   6.225   0.472
20283SOL    HW165696   7.137   6.286   0.545
20283SOL    HW265697   7.218   6.277   0.403
20284SOL     OW65698   5.940   7.096   1.329
20284SOL    HW165699   5.919   7.052   1.242
20284SOL    HW265700   6.037   7.122   1.332
20285SOL     OW65701   5.988   6.337   1.598
20285SOL    HW165702   6.056   6.392   1.551
20285SOL    HW265703   6.028   6.249   1.625
20286SOL     OW65704   7.173   6.365   1.670
20286SOL    HW165705   7.081   6.403   1.665
20286SOL    HW265706   7.233   6.412   1.605
20287SOL     OW65707   6.599   5.691   1.770
20287SOL    HW165708   6.605   5.776   1.718
20287SOL    HW265709   6.631   5.615   1.713
20288SOL     OW65710   6.090   5.636   1.740
20288SOL    HW165711   6.048   5.579   1.670
20288SOL    HW265712   6.024   5.705   1.772
20289SOL     OW65713   6.159   6.456   1.029
20289SOL    HW165714   6.203   6.545   1.020
20289SOL    HW265715   6.096   6.456   1.106
20290SOL     OW65716   6.946   6.448   1.045
20290SOL    HW165717   6.871   6.448   0.979
20290SOL    HW265718   6.983   6.356   1.054
20291SOL     OW65719   6.795   6.111   0.275
20291SOL    HW165720   6.808   6.027   0.329
20291SOL    HW265721   6.766   6.185   0.335
20292SOL     OW65722   5.893   5.799   1.231
20292SOL    HW165723   5.870   5.836   1.321
20292SOL    HW265724   5.863   5.704   1.225
20293SOL     OW65725   5.623   6.896   1.282
20293SOL    HW165726   5.676   6.847   1.350
20293SOL    HW265727   5.645   6.994   1.287
20294SOL     OW65728   6.318   6.220   1.064
20294SOL    HW165729   6.377   6.194   0.988
20294SOL    HW265730   6.290   6.316   1.053
20295SOL     OW65731   7.314   6.521   1.854
20295SOL    HW165732   7.268   6.514   1.765
20295SOL    HW265733   7.252   6.565   1.920
20296SOL     OW65734   7.208   5.953   0.374
20296SOL    HW165735   7.210   5.877   0.438
20296SOL    HW265736   7.160   6.030   0.414
20297SOL     OW65737   6.609   6.352   0.966
20297SOL    HW165738   6.624   6.373   1.062
20297SOL    HW265739   6.579   6.257   0.957
20298SOL     OW65740   6.566   7.159   1.700
20298SOL    HW165741   6.546   7.203   1.612
20298SOL    HW265742   6.605   7.068   1.684
20299SOL     OW65743   7.445   7.104   1.605
20299SOL    HW165744   7.459   7.131   1.510
20299SOL    HW265745   7.528   7.126   1.658
20300SOL     OW65746   5.936   6.484   1.804
20300SOL    HW165747   6.012   6.528   1.852
20300SOL    HW265748   5.971   6.437   1.722
20301SOL     OW65749   7.126   5.860   0.125
20301SOL    HW165750   7.065   5.785   0.148
20301SOL    HW265751   7.148   5.912   0.208
20302SOL     OW65752   6.889   6.424   0.042
20302SOL    HW165753   6.923   6.331   0.057
20302SOL    HW265754   6.907   6.451  -0.053
20303SOL     OW65755   6.654   6.919   0.849
20303SOL    HW165756   6.661   6.835   0.794
20303SOL    HW265757   6.716   6.988   0.813
20304SOL     OW65758   5.905   6.396   0.949
20304SOL    HW165759   5.998   6.432   0.954
20304SOL    HW265760   5.899   6.311   1.001
20305SOL     OW65761   5.925   6.095   1.006
20305SOL    HW165762   5.873   6.012   0.989
20305SOL    HW265763   6.002   6.100   0.942
20306SOL     OW65764   6.724   5.966   1.678
20306SOL    HW165765   6.679   6.029   1.742
20306SOL    HW265766   6.817   5.997   1.661
20307SOL     OW65767   6.746   5.793   1.477
20307SOL    HW165768   6.746   5.857   1.554
20307SOL    HW265769   6.774   5.841   1.394
20308SOL     OW65770   5.594   6.912   0.200
20308SOL    HW165771   5.501   6.933   0.169
20308SOL    HW265772   5.604   6.813   0.213
20309SOL     OW65773   5.674   7.387   0.927
20309SOL    HW165774   5.632   7.301   0.900
20309SOL    HW265775   5.768   7.390   0.893
20310SOL     OW65776   6.090   7.154   0.910
20310SOL    HW165777   6.156   7.228   0.919
20310SOL    HW265778   6.134   7.075   0.868
20311SOL     OW65779   6.588   6.382   1.238
20311SOL    HW165780   6.629   6.350   1.324
20311SOL    HW265781   6.492   6.355   1.235
20312SOL     OW65782   5.626   6.130   1.114
20312SOL    HW165783   5.711   6.097   1.073
20312SOL    HW265784   5.639   6.145   1.212
20313SOL     OW65785   5.775   6.106   1.722
20313SOL    HW165786   5.834   6.066   1.652
20313SOL    HW265787   5.717   6.177   1.681
20314SOL     OW65788   6.955   6.536   1.660
20314SOL    HW165789   6.994   6.625   1.680
20314SOL    HW265790   6.965   6.516   1.563
20315SOL     OW65791   6.401   6.158   0.325
20315SOL    HW165792   6.408   6.069   0.279
20315SOL    HW265793   6.307   6.192   0.317
20316SOL     OW65794   7.243   6.190   1.206
20316SOL    HW165795   7.205   6.121   1.268
20316SOL    HW265796   7.325   6.154   1.162
20317SOL     OW65797   5.838   7.150   1.744
20317SOL    HW165798   5.808   7.207   1.820
20317SOL    HW265799   5.831   7.053   1.770
20318SOL     OW65800   6.257   6.050   1.269
20318SOL    HW165801   6.223   5.961   1.239
20318SOL    HW265802   6.283   6.104   1.189
20319SOL     OW65803   6.516   7.264   1.465
20319SOL    HW165804   6.492   7.246   1.370
20319SOL    HW265805   6.546   7.358   1.475
20320SOL     OW65806   6.059   6.086   0.191
20320SOL    HW165807   6.120   6.166   0.195
20320SOL    HW265808   5.964   6.117   0.198
20321SOL     OW65809   5.745   6.723   1.466
20321SOL    HW165810   5.767   6.662   1.542
20321SOL    HW265811   5.755   6.674   1.380
20322SOL     OW65812   6.933   6.645   1.234
20322SOL    HW165813   6.957   6.582   1.160
20322SOL    HW265814   6.843   6.685   1.216
20323SOL     OW65815   6.888   6.441   0.309
20323SOL    HW165816   6.802   6.410   0.351
20323SOL    HW265817   6.884   6.427   0.210
20324SOL     OW65818   7.345   7.333   1.154
20324SOL    HW165819   7.406   7.363   1.081
20324SOL    HW265820   7.307   7.244   1.132
20325SOL     OW65821   6.838   7.317   1.128
20325SOL    HW165822   6.922   7.322   1.074
20325SOL    HW265823   6.815   7.221   1.146
20326SOL     OW65824   5.669   6.844   1.022
20326SOL    HW165825   5.664   6.843   1.122
20326SOL    HW265826   5.586   6.803   0.984
20327SOL     OW65827   6.274   7.248   1.716
20327SOL    HW165828   6.218   7.329   1.725
20327SOL    HW265829   6.326   7.252   1.630
20328SOL     OW65830   6.489   5.672   0.133
20328SOL    HW165831   6.540   5.673   0.047
20328SOL    HW265832   6.545   5.630   0.204
20329SOL     OW65833   7.312   5.721   0.523
20329SOL    HW165834   7.385   5.704   0.456
20329SOL    HW265835   7.281   5.634   0.561
20330SOL     OW65836   6.974   7.159   0.477
20330SOL    HW165837   7.041   7.171   0.403
20330SOL    HW265838   6.934   7.248   0.500
20331SOL     OW65839   5.716   7.380   1.851
20331SOL    HW165840   5.675   7.306   1.904
20331SOL    HW265841   5.780   7.431   1.909
20332SOL     OW65842   6.866   6.513   0.672
20332SOL    HW165843   6.926   6.432   0.674
20332SOL    HW265844   6.906   6.582   0.612
20333SOL     OW65845   6.416   6.859   1.422
20333SOL    HW165846   6.411   6.892   1.517
20333SOL    HW265847   6.330   6.878   1.376
20334SOL     OW65848   6.258   7.202   0.154
20334SOL    HW165849   6.267   7.212   0.055
20334SOL    HW265850   6.218   7.113   0.175
20335SOL     OW65851   7.236   7.306   1.394
20335SOL    HW165852   7.289   7.316   1.310
20335SOL    HW265853   7.209   7.396   1.428
20336SOL     OW65854   7.427   5.761   0.963
20336SOL    HW165855   7.466   5.676   0.927
20336SOL    HW265856   7.329   5.763   0.944
20337SOL     OW65857   5.849   5.912   0.720
20337SOL    HW165858   5.770   5.963   0.686
20337SOL    HW265859   5.840   5.897   0.818
20338SOL     OW65860   6.780   7.198   0.031
20338SOL    HW165861   6.786   7.105   0.068
20338SOL    HW265862   6.721   7.198  -0.049
20339SOL     OW65863   6.408   6.588   1.372
20339SOL    HW165864   6.448   6.587   1.280
20339SOL    HW265865   6.418   6.680   1.412
20340SOL     OW65866   6.502   6.496   0.291
20340SOL    HW165867   6.565   6.534   0.223
20340SOL    HW265868   6.542   6.413   0.330
20341SOL     OW65869   7.090   7.193   0.044
20341SOL    HW165870   6.998   7.230   0.051
20341SOL    HW265871   7.128   7.213  -0.046
20342SOL     OW65872   5.958   6.874   1.490
20342SOL    HW165873   5.945   6.967   1.456
20342SOL    HW265874   5.874   6.822   1.477
20343SOL     OW65875   7.200   6.878   1.289
20343SOL    HW165876   7.260   6.881   1.369
20343SOL    HW265877   7.125   6.942   1.302
20344SOL     OW65878   6.625   6.684   0.696
20344SOL    HW165879   6.555   6.637   0.750
20344SOL    HW265880   6.684   6.616   0.653
20345SOL     OW65881   6.600   5.822   0.971
20345SOL    HW165882   6.592   5.786   0.878
20345SOL    HW265883   6.598   5.746   1.036
20346SOL     OW65884   6.176   7.073   0.491
20346SOL    HW165885   6.218   7.015   0.421
20346SOL    HW265886   6.132   7.152   0.447
20347SOL     OW65887   7.295   5.971   1.381
20347SOL    HW165888   7.368   6.040   1.385
20347SOL    HW265889   7.323   5.896   1.322
20348SOL     OW65890   5.841   6.934   0.290
20348SOL    HW165891   5.745   6.935   0.263
20348SOL    HW265892   5.853   6.987   0.374
20349SOL     OW65893   5.691   6.599   1.726
20349SOL    HW165894   5.614   6.566   1.780
20349SOL    HW265895   5.776   6.569   1.768
20350SOL     OW65896   6.258   5.789   1.489
20350SOL    HW165897   6.348   5.773   1.449
20350SOL    HW265898   6.266   5.794   1.588
20351SOL     OW65899   5.661   5.931   0.033
20351SOL    HW165900   5.569   5.903   0.004
20351SOL    HW265901   5.692   6.008  -0.023
20352SOL     OW65902   7.026   6.442   1.398
20352SOL    HW165903   6.969   6.494   1.335
20352SOL    HW265904   7.122   6.454   1.374
20353SOL     OW65905   5.658   5.752   0.318
20353SOL    HW165906   5.641   5.835   0.264
20353SOL    HW265907   5.748   5.715   0.296
20354SOL     OW65908   6.769   6.921   0.119
20354SOL    HW165909   6.670   6.910   0.121
20354SOL    HW265910   6.803   6.936   0.212
20355SOL     OW65911   6.199   6.428   1.431
20355SOL    HW165912   6.255   6.509   1.414
20355SOL    HW265913   6.258   6.348   1.434
20356SOL     OW65914   7.079   7.353   0.959
20356SOL    HW165915   7.112   7.417   0.890
20356SOL    HW265916   7.145   7.347   1.034
20357SOL     OW65917   6.302   6.151   1.708
20357SOL    HW165918   6.321   6.216   1.782
20357SOL    HW265919   6.362   6.071   1.717
20358SOL     OW65920   7.036   6.806   1.633
20358SOL    HW165921   7.027   6.796   1.732
20358SOL    HW265922   7.132   6.799   1.607
20359SOL     OW65923   5.976   7.327   1.560
20359SOL    HW165924   5.885   7.368   1.558
20359SOL    HW265925   5.969   7.233   1.592
20360SOL     OW65926   7.260   6.469   1.254
20360SOL    HW165927   7.233   6.380   1.217
20360SOL    HW265928   7.261   6.537   1.181
20361SOL     OW65929   6.811   5.911   0.449
20361SOL    HW165930   6.876   5.837   0.438
20361SOL    HW265931   6.831   5.961   0.533
20362SOL     OW65932   7.363   5.928   1.642
20362SOL    HW165933   7.346   5.959   1.548
20362SOL    HW265934   7.279   5.891   1.680
20363SOL     OW65935   7.316   6.520   1.517
20363SOL    HW165936   7.354   6.611   1.532
20363SOL    HW265937   7.308   6.503   1.418
20364SOL     OW65938   6.445   6.960   0.016
20364SOL    HW165939   6.399   6.975   0.104
20364SOL    HW265940   6.489   7.045  -0.014
20365SOL     OW65941   6.247   7.376   0.953
20365SOL    HW165942   6.201   7.464   0.940
20365SOL    HW265943   6.346   7.388   0.946
20366SOL     OW65944   6.445   6.542   0.861
20366SOL    HW165945   6.499   6.473   0.909
20366SOL    HW265946   6.413   6.611   0.927
20367SOL     OW65947   6.669   6.570   0.087
20367SOL    HW165948   6.646   6.623   0.005
20367SOL    HW265949   6.750   6.514   0.068
20368SOL     OW65950   7.447   7.155   0.851
20368SOL    HW165951   7.376   7.143   0.781
20368SOL    HW265952   7.448   7.076   0.911
20369SOL     OW65953   5.807   6.900   1.844
20369SOL    HW165954   5.742   6.827   1.823
20369SOL    HW265955   5.811   6.914   1.942
20370SOL     OW65956   5.665   6.826   0.653
20370SOL    HW165957   5.664   6.779   0.741
20370SOL    HW265958   5.747   6.798   0.602
20371SOL     OW65959   6.258   6.977   1.624
20371SOL    HW165960   6.180   6.927   1.662
20371SOL    HW265961   6.255   7.072   1.655
20372SOL     OW65962   7.410   5.778   1.227
20372SOL    HW165963   7.406   5.688   1.271
20372SOL    HW265964   7.413   5.767   1.128
20373SOL     OW65965   6.014   6.010   0.520
20373SOL    HW165966   6.044   5.938   0.458
20373SOL    HW265967   5.975   5.970   0.603
20374SOL     OW65968   7.291   7.073   1.104
20374SOL    HW165969   7.198   7.048   1.077
20374SOL    HW265970   7.317   7.023   1.186
20375SOL     OW65971   5.903   6.133   1.280
20375SOL    HW165972   5.941   6.074   1.352
20375SOL    HW265973   5.943   6.107   1.192
20376SOL     OW65974   6.398   7.172   0.687
20376SOL    HW165975   6.430   7.182   0.593
20376SOL    HW265976   6.319   7.110   0.689
20377SOL     OW65977   7.010   5.800   1.112
20377SOL    HW165978   7.062   5.735   1.167
20377SOL    HW265979   6.961   5.863   1.173
20378SOL     OW65980   6.587   5.620   1.154
20378SOL    HW165981   6.524   5.548   1.123
20378SOL    HW265982   6.680   5.584   1.154
20379SOL     OW65983   6.356   6.916   0.301
20379SOL    HW165984   6.310   6.829   0.318
20379SOL    HW265985   6.447   6.913   0.342
20380SOL     OW65986   6.204   7.153   1.284
20380SOL    HW165987   6.199   7.235   1.341
20380SOL    HW265988   6.293   7.150   1.239
20381SOL     OW65989   6.938   5.638   0.168
20381SOL    HW165990   6.973   5.597   0.084
20381SOL    HW265991   6.848   5.600   0.188
20382SOL     OW65992   6.886   6.039   0.691
20382SOL    HW165993   6.827   6.119   0.695
20382SOL    HW265994   6.901   6.004   0.784
20383SOL     OW65995   7.179   5.807   0.882
20383SOL    HW165996   7.095   5.806   0.936
20383SOL    HW265997   7.181   5.890   0.826
20384SOL     OW65998   5.625   6.663   0.300
20384SOL    HW165999   5.724   6.652   0.291
20384SOL    HW266000   5.585   6.577   0.332
20385SOL     OW66001   5.811   5.861   2.858
20385SOL    HW166002   5.846   5.844   2.950
20385SOL    HW266003   5.723   5.816   2.846
20386SOL     OW66004   5.605   5.954   2.509
20386SOL    HW166005   5.523   5.997   2.548
20386SOL    HW266006   5.577   5.881   2.446
20387SOL     OW66007   6.155   6.861   3.027
20387SOL    HW166008   6.062   6.854   2.990
20387SOL    HW266009   6.166   6.950   3.071
20388SOL     OW66010   7.141   7.097   2.565
20388SOL    HW166011   7.084   7.081   2.646
20388SOL    HW266012   7.082   7.107   2.485
20389SOL     OW66013   6.721   6.289   2.579
20389SOL    HW166014   6.778   6.367   2.554
20389SOL    HW266015   6.661   6.315   2.655
20390SOL     OW66016   7.341   6.193   2.093
20390SOL    HW166017   7.329   6.180   1.994
20390SOL    HW266018   7.311   6.112   2.142
20391SOL     OW66019   6.354   6.730   2.885
20391SOL    HW166020   6.276   6.747   2.945
20391SOL    HW266021   6.388   6.817   2.849
20392SOL     OW66022   6.436   6.384   3.685
20392SOL    HW166023   6.432   6.460   3.750
20392SOL    HW266024   6.458   6.420   3.594
20393SOL     OW66025   6.271   6.598   2.527
20393SOL    HW166026   6.340   6.582   2.597
20393SOL    HW266027   6.198   6.655   2.565
20394SOL     OW66028   6.272   6.747   3.665
20394SOL    HW166029   6.332   6.826   3.679
20394SOL    HW266030   6.186   6.778   3.624
20395SOL     OW66031   5.921   7.021   2.923
20395SOL    HW166032   5.843   6.990   2.870
20395SOL    HW266033   5.979   7.079   2.866
20396SOL     OW66034   7.046   7.091   3.201
20396SOL    HW166035   7.070   7.185   3.227
20396SOL    HW266036   7.030   7.037   3.283
20397SOL     OW66037   6.024   5.978   3.361
20397SOL    HW166038   6.106   5.922   3.370
20397SOL    HW266039   5.943   5.920   3.365
20398SOL     OW66040   7.189   6.033   2.599
20398SOL    HW166041   7.115   6.079   2.549
20398SOL    HW266042   7.240   6.101   2.652
20399SOL     OW66043   5.817   7.299   2.345
20399SOL    HW166044   5.851   7.376   2.399
20399SOL    HW266045   5.861   7.299   2.255
20400SOL     OW66046   6.713   6.927   3.552
20400SOL    HW166047   6.760   6.927   3.640
20400SOL    HW266048   6.665   6.840   3.541
20401SOL     OW66049   5.816   7.020   2.400
20401SOL    HW166050   5.790   7.116   2.400
20401SOL    HW266051   5.745   6.966   2.445
20402SOL     OW66052   5.826   6.677   2.748
20402SOL    HW166053   5.840   6.593   2.800
20402SOL    HW266054   5.771   6.741   2.803
20403SOL     OW66055   6.206   7.372   3.301
20403SOL    HW166056   6.114   7.355   3.336
20403SOL    HW266057   6.234   7.464   3.327
20404SOL     OW66058   6.192   6.550   1.985
20404SOL    HW166059   6.199   6.634   1.931
20404SOL    HW266060   6.238   6.563   2.073
20405SOL     OW66061   7.180   5.700   3.342
20405SOL    HW166062   7.162   5.767   3.270
20405SOL    HW266063   7.177   5.746   3.431
20406SOL     OW66064   5.708   6.229   2.425
20406SOL    HW166065   5.663   6.141   2.442
20406SOL    HW266066   5.707   6.283   2.509
20407SOL     OW66067   7.428   7.353   2.221
20407SOL    HW166068   7.482   7.324   2.301
20407SOL    HW266069   7.458   7.443   2.192
20408SOL     OW66070   5.613   7.182   1.979
20408SOL    HW166071   5.594   7.086   2.000
20408SOL    HW266072   5.580   7.240   2.054
20409SOL     OW66073   7.275   6.508   2.474
20409SOL    HW166074   7.370   6.479   2.482
20409SOL    HW266075   7.267   6.573   2.399
20410SOL     OW66076   7.227   6.694   2.294
20410SOL    HW166077   7.313   6.696   2.242
20410SOL    HW266078   7.241   6.741   2.382
20411SOL     OW66079   5.699   6.323   3.459
20411SOL    HW166080   5.787   6.310   3.504
20411SOL    HW266081   5.686   6.420   3.437
20412SOL     OW66082   6.199   6.951   2.588
20412SOL    HW166083   6.150   6.864   2.597
20412SOL    HW266084   6.176   6.994   2.501
20413SOL     OW66085   6.879   6.814   3.285
20413SOL    HW166086   6.916   6.741   3.227
20413SOL    HW266087   6.931   6.819   3.370
20414SOL     OW66088   6.395   5.590   2.364
20414SOL    HW166089   6.435   5.681   2.355
20414SOL    HW266090   6.295   5.598   2.370
20415SOL     OW66091   5.783   6.562   3.126
20415SOL    HW166092   5.872   6.517   3.112
20415SOL    HW266093   5.710   6.497   3.107
20416SOL     OW66094   7.111   6.585   2.052
20416SOL    HW166095   7.048   6.509   2.065
20416SOL    HW266096   7.159   6.603   2.138
20417SOL     OW66097   6.773   7.378   3.478
20417SOL    HW166098   6.797   7.438   3.402
20417SOL    HW266099   6.780   7.283   3.448
20418SOL     OW66100   5.903   5.837   3.663
20418SOL    HW166101   5.974   5.908   3.669
20418SOL    HW266102   5.815   5.876   3.691
20419SOL     OW66103   7.052   7.003   2.815
20419SOL    HW166104   6.993   7.009   2.895
20419SOL    HW266105   7.037   6.915   2.769
20420SOL     OW66106   7.253   7.300   2.434
20420SOL    HW166107   7.212   7.277   2.346
20420SOL    HW266108   7.235   7.226   2.499
20421SOL     OW66109   6.184   6.315   2.132
20421SOL    HW166110   6.208   6.384   2.064
20421SOL    HW266111   6.106   6.348   2.186
20422SOL     OW66112   6.867   5.931   2.806
20422SOL    HW166113   6.781   5.881   2.793
20422SOL    HW266114   6.929   5.877   2.862
20423SOL     OW66115   7.162   7.248   2.169
20423SOL    HW166116   7.251   7.294   2.172
20423SOL    HW266117   7.141   7.224   2.074
20424SOL     OW66118   6.393   6.191   3.327
20424SOL    HW166119   6.346   6.188   3.416
20424SOL    HW266120   6.342   6.136   3.261
20425SOL     OW66121   6.980   6.055   3.536
20425SOL    HW166122   6.960   6.098   3.624
20425SOL    HW266123   7.058   5.993   3.545
20426SOL     OW66124   6.559   6.476   3.434
20426SOL    HW166125   6.605   6.392   3.405
20426SOL    HW266126   6.503   6.510   3.359
20427SOL     OW66127   6.577   5.996   3.104
20427SOL    HW166128   6.500   6.030   3.158
20427SOL    HW266129   6.543   5.945   3.025
20428SOL     OW66130   6.627   6.287   2.291
20428SOL    HW166131   6.653   6.283   2.387
20428SOL    HW266132   6.542   6.236   2.277
20429SOL     OW66133   5.662   6.397   2.651
20429SOL    HW166134   5.761   6.385   2.660
20429SOL    HW266135   5.638   6.492   2.672
20430SOL     OW66136   5.716   7.407   3.433
20430SOL    HW166137   5.706   7.392   3.532
20430SOL    HW266138   5.630   7.443   3.397
20431SOL     OW66139   6.451   5.934   2.057
20431SOL    HW166140   6.510   5.997   2.008
20431SOL    HW266141   6.470   5.840   2.028
20432SOL     OW66142   7.305   6.171   3.693
20432SOL    HW166143   7.279   6.260   3.657
20432SOL    HW266144   7.303   6.103   3.620
20433SOL     OW66145   6.948   6.730   2.407
20433SOL    HW166146   7.031   6.701   2.359
20433SOL    HW266147   6.899   6.797   2.351
20434SOL     OW66148   6.136   5.782   2.747
20434SOL    HW166149   6.131   5.777   2.847
20434SOL    HW266150   6.138   5.878   2.718
20435SOL     OW66151   6.594   7.042   2.339
20435SOL    HW166152   6.548   7.114   2.287
20435SOL    HW266153   6.590   7.062   2.437
20436SOL     OW66154   7.381   6.652   2.735
20436SOL    HW166155   7.319   6.637   2.659
20436SOL    HW266156   7.329   6.663   2.820
20437SOL     OW66157   6.813   7.136   3.368
20437SOL    HW166158   6.819   7.059   3.432
20437SOL    HW266159   6.761   7.110   3.288
20438SOL     OW66160   5.907   6.529   2.104
20438SOL    HW166161   5.989   6.568   2.062
20438SOL    HW266162   5.880   6.447   2.055
20439SOL     OW66163   7.044   6.321   2.590
20439SOL    HW166164   7.039   6.256   2.665
20439SOL    HW266165   7.124   6.380   2.603
20440SOL     OW66166   6.047   6.852   3.589
20440SOL    HW166167   5.997   6.853   3.503
20440SOL    HW266168   5.984   6.834   3.665
20441SOL     OW66169   6.697   7.362   2.099
20441SOL    HW166170   6.637   7.300   2.149
20441SOL    HW266171   6.728   7.318   2.014
20442SOL     OW66172   5.788   5.871   3.360
20442SOL    HW166173   5.708   5.931   3.347
20442SOL    HW266174   5.778   5.822   3.446
20443SOL     OW66175   7.218   6.963   1.943
20443SOL    HW166176   7.186   7.057   1.933
20443SOL    HW266177   7.142   6.900   1.931
20444SOL     OW66178   6.050   7.329   2.185
20444SOL    HW166179   6.083   7.368   2.271
20444SOL    HW266180   6.126   7.322   2.120
20445SOL     OW66181   6.986   5.693   2.288
20445SOL    HW166182   6.962   5.656   2.198
20445SOL    HW266183   7.085   5.709   2.292
20446SOL     OW66184   5.835   7.371   3.103
20446SOL    HW166185   5.892   7.306   3.153
20446SOL    HW266186   5.819   7.338   3.010
20447SOL     OW66187   6.526   7.284   2.766
20447SOL    HW166188   6.606   7.227   2.787
20447SOL    HW266189   6.477   7.244   2.689
20448SOL     OW66190   5.968   6.286   2.342
20448SOL    HW166191   6.013   6.196   2.339
20448SOL    HW266192   5.874   6.275   2.375
20449SOL     OW66193   7.133   5.808   3.591
20449SOL    HW166194   7.128   5.845   3.683
20449SOL    HW266195   7.061   5.739   3.579
20450SOL     OW66196   6.200   5.708   1.979
20450SOL    HW166197   6.298   5.686   1.986
20450SOL    HW266198   6.169   5.691   1.886
20451SOL     OW66199   6.367   5.850   3.611
20451SOL    HW166200   6.434   5.789   3.654
20451SOL    HW266201   6.294   5.869   3.676
20452SOL     OW66202   6.474   7.100   3.057
20452SOL    HW166203   6.451   7.075   2.963
20452SOL    HW266204   6.535   7.031   3.096
20453SOL     OW66205   6.937   6.176   3.295
20453SOL    HW166206   6.965   6.133   3.380
20453SOL    HW266207   6.962   6.272   3.296
20454SOL     OW66208   6.389   6.988   2.786
20454SOL    HW166209   6.479   7.002   2.744
20454SOL    HW266210   6.318   6.990   2.715
20455SOL     OW66211   6.508   6.089   2.761
20455SOL    HW166212   6.483   6.080   2.665
20455SOL    HW266213   6.556   6.007   2.792
20456SOL     OW66214   6.125   5.650   2.374
20456SOL    HW166215   6.044   5.651   2.432
20456SOL    HW266216   6.128   5.733   2.319
20457SOL     OW66217   7.020   6.774   1.903
20457SOL    HW166218   7.052   6.698   1.960
20457SOL    HW266219   6.928   6.801   1.933
20458SOL     OW66220   5.883   5.621   2.033
20458SOL    HW166221   5.932   5.705   2.012
20458SOL    HW266222   5.945   5.556   2.078
20459SOL     OW66223   6.521   5.822   2.342
20459SOL    HW166224   6.473   5.863   2.264
20459SOL    HW266225   6.620   5.820   2.323
20460SOL     OW66226   6.662   6.269   3.326
20460SOL    HW166227   6.582   6.208   3.329
20460SOL    HW266228   6.743   6.216   3.302
20461SOL     OW66229   6.813   7.156   2.655
20461SOL    HW166230   6.834   7.230   2.590
20461SOL    HW266231   6.881   7.156   2.728
20462SOL     OW66232   6.045   6.738   2.603
20462SOL    HW166233   5.974   6.711   2.668
20462SOL    HW266234   6.019   6.710   2.510
20463SOL     OW66235   6.857   7.383   2.453
20463SOL    HW166236   6.901   7.447   2.389
20463SOL    HW266237   6.807   7.435   2.523
20464SOL     OW66238   6.618   6.135   1.878
20464SOL    HW166239   6.577   6.217   1.839
20464SOL    HW266240   6.682   6.161   1.951
20465SOL     OW66241   5.664   6.142   3.248
20465SOL    HW166242   5.756   6.141   3.207
20465SOL    HW266243   5.658   6.216   3.315
20466SOL     OW66244   6.147   5.808   3.009
20466SOL    HW166245   6.185   5.724   3.046
20466SOL    HW266246   6.059   5.827   3.053
20467SOL     OW66247   6.452   6.040   2.504
20467SOL    HW166248   6.420   6.112   2.442
20467SOL    HW266249   6.476   5.959   2.451
20468SOL     OW66250   6.603   5.625   2.615
20468SOL    HW166251   6.531   5.630   2.546
20468SOL    HW266252   6.579   5.556   2.684
20469SOL     OW66253   7.015   6.759   2.729
20469SOL    HW166254   6.960   6.675   2.722
20469SOL    HW266255   7.041   6.788   2.637
20470SOL     OW66256   7.052   6.176   2.854
20470SOL    HW166257   7.022   6.081   2.861
20470SOL    HW266258   7.125   6.192   2.920
20471SOL     OW66259   7.443   6.419   2.239
20471SOL    HW166260   7.485   6.355   2.303
20471SOL    HW266261   7.405   6.368   2.161
20472SOL     OW66262   6.074   6.971   2.036
20472SOL    HW166263   5.987   6.956   2.083
20472SOL    HW266264   6.057   6.997   1.941
20473SOL     OW66265   7.250   6.866   2.519
20473SOL    HW166266   7.349   6.874   2.533
20473SOL    HW266267   7.205   6.950   2.550
20474SOL     OW66268   6.976   6.161   1.940
20474SOL    HW166269   6.922   6.140   2.021
20474SOL    HW266270   7.067   6.120   1.949
20475SOL     OW66271   6.113   5.842   2.190
20475SOL    HW166272   6.140   5.783   2.115
20475SOL    HW266273   6.113   5.937   2.159
20476SOL     OW66274   7.340   6.809   3.450
20476SOL    HW166275   7.431   6.770   3.437
20476SOL    HW266276   7.348   6.905   3.474
20477SOL     OW66277   6.650   6.933   3.202
20477SOL    HW166278   6.570   6.910   3.257
20477SOL    HW266279   6.733   6.907   3.251
20478SOL     OW66280   7.178   7.215   3.487
20478SOL    HW166281   7.205   7.249   3.397
20478SOL    HW266282   7.257   7.177   3.533
20479SOL     OW66283   6.697   6.781   2.962
20479SOL    HW166284   6.657   6.825   3.043
20479SOL    HW266285   6.656   6.818   2.879
20480SOL     OW66286   7.224   6.685   2.941
20480SOL    HW166287   7.229   6.766   3.000
20480SOL    HW266288   7.138   6.687   2.890
20481SOL     OW66289   6.501   5.675   3.264
20481SOL    HW166290   6.526   5.655   3.169
20481SOL    HW266291   6.573   5.731   3.306
20482SOL     OW66292   6.566   6.702   3.581
20482SOL    HW166293   6.467   6.708   3.591
20482SOL    HW266294   6.589   6.622   3.525
20483SOL     OW66295   6.291   6.636   2.230
20483SOL    HW166296   6.277   6.643   2.329
20483SOL    HW266297   6.375   6.585   2.212
20484SOL     OW66298   5.996   6.399   3.113
20484SOL    HW166299   6.082   6.411   3.163
20484SOL    HW266300   5.954   6.312   3.140
20485SOL     OW66301   6.860   5.972   3.124
20485SOL    HW166302   6.881   6.046   3.188
20485SOL    HW266303   6.771   5.989   3.081
20486SOL     OW66304   5.650   7.150   3.193
20486SOL    HW166305   5.604   7.232   3.159
20486SOL    HW266306   5.748   7.169   3.202
20487SOL     OW66307   5.953   6.686   2.363
20487SOL    HW166308   5.946   6.769   2.307
20487SOL    HW266309   5.957   6.606   2.303
20488SOL     OW66310   6.152   6.123   2.727
20488SOL    HW166311   6.164   6.189   2.653
20488SOL    HW266312   6.198   6.157   2.810
20489SOL     OW66313   6.838   6.934   2.250
20489SOL    HW166314   6.888   7.011   2.290
20489SOL    HW266315   6.743   6.936   2.282
20490SOL     OW66316   6.858   7.031   3.004
20490SOL    HW166317   6.905   7.044   3.091
20490SOL    HW266318   6.792   6.957   3.013
20491SOL     OW66319   7.168   6.225   2.334
20491SOL    HW166320   7.137   6.286   2.407
20491SOL    HW266321   7.218   6.277   2.265
20492SOL     OW66322   5.940   7.096   3.191
20492SOL    HW166323   5.919   7.052   3.104
20492SOL    HW266324   6.037   7.122   3.194
20493SOL     OW66325   5.988   6.337   3.460
20493SOL    HW166326   6.056   6.392   3.413
20493SOL    HW266327   6.028   6.249   3.487
20494SOL     OW66328   7.173   6.365   3.532
20494SOL    HW166329   7.081   6.403   3.527
20494SOL    HW266330   7.233   6.412   3.467
20495SOL     OW66331   6.599   5.691   3.632
20495SOL    HW166332   6.605   5.776   3.580
20495SOL    HW266333   6.631   5.615   3.575
20496SOL     OW66334   6.090   5.636   3.602
20496SOL    HW166335   6.048   5.579   3.532
20496SOL    HW266336   6.024   5.705   3.634
20497SOL     OW66337   6.159   6.456   2.891
20497SOL    HW166338   6.203   6.545   2.882
20497SOL    HW266339   6.096   6.456   2.968
20498SOL     OW66340   6.946   6.448   2.907
20498SOL    HW166341   6.871   6.448   2.841
20498SOL    HW266342   6.983   6.356   2.916
20499SOL     OW66343   6.795   6.111   2.137
20499SOL    HW166344   6.808   6.027   2.191
20499SOL    HW266345   6.766   6.185   2.197
20500SOL     OW66346   5.893   5.799   3.093
20500SOL    HW166347   5.870   5.836   3.183
20500SOL    HW266348   5.863   5.704   3.087
20501SOL     OW66349   5.623   6.896   3.144
20501SOL    HW166350   5.676   6.847   3.212
20501SOL    HW266351   5.645   6.994   3.149
20502SOL     OW66352   6.318   6.220   2.926
20502SOL    HW166353   6.377   6.194   2.850
20502SOL    HW266354   6.290   6.316   2.915
20503SOL     OW66355   7.314   6.521   3.716
20503SOL    HW166356   7.268   6.514   3.627
20503SOL    HW266357   7.252   6.565   3.782
20504SOL     OW66358   5.893   5.649   2.480
20504SOL    HW166359   5.882   5.743   2.513
20504SOL    HW266360   5.888   5.586   2.557
20505SOL     OW66361   6.609   6.352   2.828
20505SOL    HW166362   6.624   6.373   2.924
20505SOL    HW266363   6.579   6.257   2.819
20506SOL     OW66364   6.566   7.159   3.562
20506SOL    HW166365   6.546   7.203   3.474
20506SOL    HW266366   6.605   7.068   3.546
20507SOL     OW66367   7.445   7.104   3.467
20507SOL    HW166368   7.459   7.131   3.372
20507SOL    HW266369   7.528   7.126   3.520
20508SOL     OW66370   5.936   6.484   3.666
20508SOL    HW166371   6.012   6.528   3.714
20508SOL    HW266372   5.971   6.437   3.584
20509SOL     OW66373   7.126   5.860   1.987
20509SOL    HW166374   7.065   5.785   2.010
20509SOL    HW266375   7.148   5.912   2.070
20510SOL     OW66376   6.889   6.424   1.904
20510SOL    HW166377   6.923   6.331   1.919
20510SOL    HW266378   6.907   6.451   1.809
20511SOL     OW66379   6.654   6.919   2.711
20511SOL    HW166380   6.661   6.835   2.656
20511SOL    HW266381   6.716   6.988   2.675
20512SOL     OW66382   5.925   6.095   2.868
20512SOL    HW166383   5.873   6.012   2.851
20512SOL    HW266384   6.002   6.100   2.804
20513SOL     OW66385   6.724   5.966   3.540
20513SOL    HW166386   6.679   6.029   3.604
20513SOL    HW266387   6.817   5.997   3.523
20514SOL     OW66388   6.746   5.793   3.339
20514SOL    HW166389   6.746   5.857   3.416
20514SOL    HW266390   6.774   5.841   3.256
20515SOL     OW66391   5.594   6.912   2.062
20515SOL    HW166392   5.501   6.933   2.031
20515SOL    HW266393   5.604   6.813   2.075
20516SOL     OW66394   5.674   7.387   2.789
20516SOL    HW166395   5.632   7.301   2.762
20516SOL    HW266396   5.768   7.390   2.755
20517SOL     OW66397   6.090   7.154   2.772
20517SOL    HW166398   6.156   7.228   2.781
20517SOL    HW266399   6.134   7.075   2.730
20518SOL     OW66400   6.588   6.382   3.100
20518SOL    HW166401   6.629   6.350   3.186
20518SOL    HW266402   6.492   6.355   3.097
20519SOL     OW66403   5.626   6.130   2.976
20519SOL    HW166404   5.711   6.097   2.935
20519SOL    HW266405   5.639   6.145   3.074
20520SOL     OW66406   5.775   6.106   3.584
20520SOL    HW166407   5.834   6.066   3.514
20520SOL    HW266408   5.717   6.177   3.543
20521SOL     OW66409   6.955   6.536   3.522
20521SOL    HW166410   6.994   6.625   3.542
20521SOL    HW266411   6.965   6.516   3.425
20522SOL     OW66412   6.401   6.158   2.187
20522SOL    HW166413   6.408   6.069   2.141
20522SOL    HW266414   6.307   6.192   2.179
20523SOL     OW66415   7.243   6.190   3.068
20523SOL    HW166416   7.205   6.121   3.130
20523SOL    HW266417   7.325   6.154   3.024
20524SOL     OW66418   5.838   7.150   3.606
20524SOL    HW166419   5.808   7.207   3.682
20524SOL    HW266420   5.831   7.053   3.632
20525SOL     OW66421   6.257   6.050   3.131
20525SOL    HW166422   6.223   5.961   3.101
20525SOL    HW266423   6.283   6.104   3.051
20526SOL     OW66424   6.516   7.264   3.327
20526SOL    HW166425   6.492   7.246   3.232
20526SOL    HW266426   6.546   7.358   3.337
20527SOL     OW66427   6.059   6.086   2.053
20527SOL    HW166428   6.120   6.166   2.057
20527SOL    HW266429   5.964   6.117   2.060
20528SOL     OW66430   5.745   6.723   3.328
20528SOL    HW166431   5.767   6.662   3.404
20528SOL    HW266432   5.755   6.674   3.242
20529SOL     OW66433   6.933   6.645   3.096
20529SOL    HW166434   6.957   6.582   3.022
20529SOL    HW266435   6.843   6.685   3.078
20530SOL     OW66436   6.888   6.441   2.171
20530SOL    HW166437   6.802   6.410   2.213
20530SOL    HW266438   6.884   6.427   2.072
20531SOL     OW66439   7.345   7.333   3.016
20531SOL    HW166440   7.406   7.363   2.943
20531SOL    HW266441   7.307   7.244   2.994
20532SOL     OW66442   6.838   7.317   2.990
20532SOL    HW166443   6.922   7.322   2.936
20532SOL    HW266444   6.815   7.221   3.008
20533SOL     OW66445   5.669   6.844   2.884
20533SOL    HW166446   5.664   6.843   2.984
20533SOL    HW266447   5.586   6.803   2.846
20534SOL     OW66448   6.274   7.248   3.578
20534SOL    HW166449   6.218   7.329   3.587
20534SOL    HW266450   6.326   7.252   3.492
20535SOL     OW66451   7.312   5.721   2.385
20535SOL    HW166452   7.385   5.704   2.318
20535SOL    HW266453   7.281   5.634   2.423
20536SOL     OW66454   6.974   7.159   2.339
20536SOL    HW166455   7.041   7.171   2.265
20536SOL    HW266456   6.934   7.248   2.362
20537SOL     OW66457   5.716   7.380   3.713
20537SOL    HW166458   5.675   7.306   3.766
20537SOL    HW266459   5.780   7.431   3.771
20538SOL     OW66460   6.866   6.513   2.534
20538SOL    HW166461   6.926   6.432   2.536
20538SOL    HW266462   6.906   6.582   2.474
20539SOL     OW66463   6.416   6.859   3.284
20539SOL    HW166464   6.411   6.892   3.379
20539SOL    HW266465   6.330   6.878   3.238
20540SOL     OW66466   6.258   7.202   2.016
20540SOL    HW166467   6.267   7.212   1.917
20540SOL    HW266468   6.218   7.113   2.037
20541SOL     OW66469   7.236   7.306   3.256
20541SOL    HW166470   7.289   7.316   3.172
20541SOL    HW266471   7.209   7.396   3.290
20542SOL     OW66472   7.427   5.761   2.825
20542SOL    HW166473   7.466   5.676   2.789
20542SOL    HW266474   7.329   5.763   2.806
20543SOL     OW66475   5.849   5.912   2.582
20543SOL    HW166476   5.770   5.963   2.548
20543SOL    HW266477   5.840   5.897   2.680
20544SOL     OW66478   6.780   7.198   1.893
20544SOL    HW166479   6.786   7.105   1.930
20544SOL    HW266480   6.721   7.198   1.813
20545SOL     OW66481   6.408   6.588   3.234
20545SOL    HW166482   6.448   6.587   3.142
20545SOL    HW266483   6.418   6.680   3.274
20546SOL     OW66484   6.502   6.496   2.153
20546SOL    HW166485   6.565   6.534   2.085
20546SOL    HW266486   6.542   6.413   2.192
20547SOL     OW66487   5.958   6.874   3.352
20547SOL    HW166488   5.945   6.967   3.318
20547SOL    HW266489   5.874   6.822   3.339
20548SOL     OW66490   7.200   6.878   3.151
20548SOL    HW166491   7.260   6.881   3.231
20548SOL    HW266492   7.125   6.942   3.164
20549SOL     OW66493   6.625   6.684   2.558
20549SOL    HW166494   6.555   6.637   2.612
20549SOL    HW266495   6.684   6.616   2.515
20550SOL     OW66496   6.600   5.822   2.833
20550SOL    HW166497   6.592   5.786   2.740
20550SOL    HW266498   6.598   5.746   2.898
20551SOL     OW66499   6.176   7.073   2.353
20551SOL    HW166500   6.218   7.015   2.283
20551SOL    HW266501   6.132   7.152   2.309
20552SOL     OW66502   7.295   5.971   3.243
20552SOL    HW166503   7.368   6.040   3.247
20552SOL    HW266504   7.323   5.896   3.184
20553SOL     OW66505   5.841   6.934   2.152
20553SOL    HW166506   5.745   6.935   2.125
20553SOL    HW266507   5.853   6.987   2.236
20554SOL     OW66508   5.691   6.599   3.588
20554SOL    HW166509   5.614   6.566   3.642
20554SOL    HW266510   5.776   6.569   3.630
20555SOL     OW66511   6.258   5.789   3.351
20555SOL    HW166512   6.348   5.773   3.311
20555SOL    HW266513   6.266   5.794   3.450
20556SOL     OW66514   5.661   5.931   1.895
20556SOL    HW166515   5.569   5.903   1.866
20556SOL    HW266516   5.692   6.008   1.839
20557SOL     OW66517   7.026   6.442   3.260
20557SOL    HW166518   6.969   6.494   3.197
20557SOL    HW266519   7.122   6.454   3.236
20558SOL     OW66520   5.658   5.752   2.180
20558SOL    HW166521   5.641   5.835   2.126
20558SOL    HW266522   5.748   5.715   2.158
20559SOL     OW66523   6.769   6.921   1.981
20559SOL    HW166524   6.670   6.910   1.983
20559SOL    HW266525   6.803   6.936   2.074
20560SOL     OW66526   6.199   6.428   3.293
20560SOL    HW166527   6.255   6.509   3.276
20560SOL    HW266528   6.258   6.348   3.296
20561SOL     OW66529   7.079   7.353   2.821
20561SOL    HW166530   7.112   7.417   2.752
20561SOL    HW266531   7.145   7.347   2.896
20562SOL     OW66532   6.302   6.151   3.570
20562SOL    HW166533   6.321   6.216   3.644
20562SOL    HW266534   6.362   6.071   3.579
20563SOL     OW66535   7.036   6.806   3.495
20563SOL    HW166536   7.027   6.796   3.594
20563SOL    HW266537   7.132   6.799   3.469
20564SOL     OW66538   5.976   7.327   3.422
20564SOL    HW166539   5.885   7.368   3.420
20564SOL    HW266540   5.969   7.233   3.454
20565SOL     OW66541   7.260   6.469   3.116
20565SOL    HW166542   7.233   6.380   3.079
20565SOL    HW266543   7.261   6.537   3.043
20566SOL     OW66544   6.811   5.911   2.311
20566SOL    HW166545   6.876   5.837   2.300
20566SOL    HW266546   6.831   5.961   2.395
20567SOL     OW66547   6.180   6.331   2.514
20567SOL    HW166548   6.230   6.416   2.495
20567SOL    HW266549   6.092   6.333   2.466
20568SOL     OW66550   7.363   5.928   3.504
20568SOL    HW166551   7.346   5.959   3.410
20568SOL    HW266552   7.279   5.891   3.542
20569SOL     OW66553   7.316   6.520   3.379
20569SOL    HW166554   7.354   6.611   3.394
20569SOL    HW266555   7.308   6.503   3.280
20570SOL     OW66556   6.445   6.960   1.878
20570SOL    HW166557   6.399   6.975   1.966
20570SOL    HW266558   6.489   7.045   1.848
20571SOL     OW66559   6.247   7.376   2.815
20571SOL    HW166560   6.201   7.464   2.802
20571SOL    HW266561   6.346   7.388   2.808
20572SOL     OW66562   6.445   6.542   2.723
20572SOL    HW166563   6.499   6.473   2.771
20572SOL    HW266564   6.413   6.611   2.789
20573SOL     OW66565   6.669   6.570   1.949
20573SOL    HW166566   6.646   6.623   1.867
20573SOL    HW266567   6.750   6.514   1.930
20574SOL     OW66568   5.807   6.900   3.706
20574SOL    HW166569   5.742   6.827   3.685
20574SOL    HW266570   5.811   6.914   3.804
20575SOL     OW66571   5.665   6.826   2.515
20575SOL    HW166572   5.664   6.779   2.603
20575SOL    HW266573   5.747   6.798   2.464
20576SOL     OW66574   6.258   6.977   3.486
20576SOL    HW166575   6.180   6.927   3.524
20576SOL    HW266576   6.255   7.072   3.517
20577SOL     OW66577   7.410   5.778   3.089
20577SOL    HW166578   7.406   5.688   3.133
20577SOL    HW266579   7.413   5.767   2.990
20578SOL     OW66580   6.014   6.010   2.382
20578SOL    HW166581   6.044   5.938   2.320
20578SOL    HW266582   5.975   5.970   2.465
20579SOL     OW66583   7.291   7.073   2.966
20579SOL    HW166584   7.198   7.048   2.939
20579SOL    HW266585   7.317   7.023   3.048
20580SOL     OW66586   5.903   6.133   3.142
20580SOL    HW166587   5.941   6.074   3.214
20580SOL    HW266588   5.943   6.107   3.054
20581SOL     OW66589   6.398   7.172   2.549
20581SOL    HW166590   6.430   7.182   2.455
20581SOL    HW266591   6.319   7.110   2.551
20582SOL     OW66592   7.010   5.800   2.974
20582SOL    HW166593   7.062   5.735   3.029
20582SOL    HW266594   6.961   5.863   3.035
20583SOL     OW66595   6.356   6.916   2.163
20583SOL    HW166596   6.310   6.829   2.180
20583SOL    HW266597   6.447   6.913   2.204
20584SOL     OW66598   6.204   7.153   3.146
20584SOL    HW166599   6.199   7.235   3.203
20584SOL    HW266600   6.293   7.150   3.101
20585SOL     OW66601   6.938   5.638   2.030
20585SOL    HW166602   6.973   5.597   1.946
20585SOL    HW266603   6.848   5.600   2.050
20586SOL     OW66604   6.886   6.039   2.553
20586SOL    HW166605   6.827   6.119   2.557
20586SOL    HW266606   6.901   6.004   2.646
20587SOL     OW66607   7.179   5.807   2.744
20587SOL    HW166608   7.095   5.806   2.798
20587SOL    HW266609   7.181   5.890   2.688
20588SOL     OW66610   5.625   6.663   2.162
20588SOL    HW166611   5.724   6.652   2.153
20588SOL    HW266612   5.585   6.577   2.194
20589SOL     OW66613   6.461   7.232   2.199
20589SOL    HW166614   6.384   7.197   2.145
20589SOL    HW266615   6.429   7.303   2.261
20590SOL     OW66616   5.816   6.214   3.837
20590SOL    HW166617   5.723   6.212   3.874
20590SOL    HW266618   5.817   6.175   3.745
20591SOL     OW66619   5.811   5.861   4.720
20591SOL    HW166620   5.846   5.844   4.812
20591SOL    HW266621   5.723   5.816   4.708
20592SOL     OW66622   5.605   5.954   4.371
20592SOL    HW166623   5.523   5.997   4.410
20592SOL    HW266624   5.577   5.881   4.308
20593SOL     OW66625   6.155   6.861   4.889
20593SOL    HW166626   6.062   6.854   4.852
20593SOL    HW266627   6.166   6.950   4.933
20594SOL     OW66628   7.141   7.097   4.427
20594SOL    HW166629   7.084   7.081   4.508
20594SOL    HW266630   7.082   7.107   4.347
20595SOL     OW66631   6.721   6.289   4.441
20595SOL    HW166632   6.778   6.367   4.416
20595SOL    HW266633   6.661   6.315   4.517
20596SOL     OW66634   7.341   6.193   3.955
20596SOL    HW166635   7.329   6.180   3.856
20596SOL    HW266636   7.311   6.112   4.004
20597SOL     OW66637   6.354   6.730   4.747
20597SOL    HW166638   6.276   6.747   4.807
20597SOL    HW266639   6.388   6.817   4.711
20598SOL     OW66640   6.436   6.384   5.547
20598SOL    HW166641   6.432   6.460   5.612
20598SOL    HW266642   6.458   6.420   5.456
20599SOL     OW66643   6.271   6.598   4.389
20599SOL    HW166644   6.340   6.582   4.459
20599SOL    HW266645   6.198   6.655   4.427
20600SOL     OW66646   6.272   6.747   5.527
20600SOL    HW166647   6.332   6.826   5.541
20600SOL    HW266648   6.186   6.778   5.486
20601SOL     OW66649   5.921   7.021   4.785
20601SOL    HW166650   5.843   6.990   4.732
20601SOL    HW266651   5.979   7.079   4.728
20602SOL     OW66652   7.046   7.091   5.063
20602SOL    HW166653   7.070   7.185   5.089
20602SOL    HW266654   7.030   7.037   5.145
20603SOL     OW66655   6.024   5.978   5.223
20603SOL    HW166656   6.106   5.922   5.232
20603SOL    HW266657   5.943   5.920   5.227
20604SOL     OW66658   7.189   6.033   4.461
20604SOL    HW166659   7.115   6.079   4.411
20604SOL    HW266660   7.240   6.101   4.514
20605SOL     OW66661   5.817   7.299   4.207
20605SOL    HW166662   5.851   7.376   4.261
20605SOL    HW266663   5.861   7.299   4.117
20606SOL     OW66664   6.713   6.927   5.414
20606SOL    HW166665   6.760   6.927   5.502
20606SOL    HW266666   6.665   6.840   5.403
20607SOL     OW66667   5.816   7.020   4.262
20607SOL    HW166668   5.790   7.116   4.262
20607SOL    HW266669   5.745   6.966   4.307
20608SOL     OW66670   5.826   6.677   4.610
20608SOL    HW166671   5.840   6.593   4.662
20608SOL    HW266672   5.771   6.741   4.665
20609SOL     OW66673   6.206   7.372   5.163
20609SOL    HW166674   6.114   7.355   5.198
20609SOL    HW266675   6.234   7.464   5.189
20610SOL     OW66676   7.180   5.700   5.204
20610SOL    HW166677   7.162   5.767   5.132
20610SOL    HW266678   7.177   5.746   5.293
20611SOL     OW66679   7.428   7.353   4.083
20611SOL    HW166680   7.482   7.324   4.163
20611SOL    HW266681   7.458   7.443   4.054
20612SOL     OW66682   5.613   7.182   3.841
20612SOL    HW166683   5.594   7.086   3.862
20612SOL    HW266684   5.580   7.240   3.916
20613SOL     OW66685   7.275   6.508   4.336
20613SOL    HW166686   7.370   6.479   4.344
20613SOL    HW266687   7.267   6.573   4.261
20614SOL     OW66688   7.227   6.694   4.156
20614SOL    HW166689   7.313   6.696   4.104
20614SOL    HW266690   7.241   6.741   4.244
20615SOL     OW66691   5.699   6.323   5.321
20615SOL    HW166692   5.787   6.310   5.366
20615SOL    HW266693   5.686   6.420   5.299
20616SOL     OW66694   6.199   6.951   4.450
20616SOL    HW166695   6.150   6.864   4.459
20616SOL    HW266696   6.176   6.994   4.363
20617SOL     OW66697   6.879   6.814   5.147
20617SOL    HW166698   6.916   6.741   5.089
20617SOL    HW266699   6.931   6.819   5.232
20618SOL     OW66700   6.395   5.590   4.226
20618SOL    HW166701   6.435   5.681   4.217
20618SOL    HW266702   6.295   5.598   4.232
20619SOL     OW66703   5.783   6.562   4.988
20619SOL    HW166704   5.872   6.517   4.974
20619SOL    HW266705   5.710   6.497   4.969
20620SOL     OW66706   7.111   6.585   3.914
20620SOL    HW166707   7.048   6.509   3.927
20620SOL    HW266708   7.159   6.603   4.000
20621SOL     OW66709   6.773   7.378   5.340
20621SOL    HW166710   6.797   7.438   5.264
20621SOL    HW266711   6.780   7.283   5.310
20622SOL     OW66712   5.903   5.837   5.525
20622SOL    HW166713   5.974   5.908   5.531
20622SOL    HW266714   5.815   5.876   5.553
20623SOL     OW66715   7.052   7.003   4.677
20623SOL    HW166716   6.993   7.009   4.757
20623SOL    HW266717   7.037   6.915   4.631
20624SOL     OW66718   7.253   7.300   4.296
20624SOL    HW166719   7.212   7.277   4.208
20624SOL    HW266720   7.235   7.226   4.361
20625SOL     OW66721   6.184   6.315   3.994
20625SOL    HW166722   6.208   6.384   3.926
20625SOL    HW266723   6.106   6.348   4.048
20626SOL     OW66724   6.867   5.931   4.668
20626SOL    HW166725   6.781   5.881   4.655
20626SOL    HW266726   6.929   5.877   4.724
20627SOL     OW66727   7.162   7.248   4.031
20627SOL    HW166728   7.251   7.294   4.034
20627SOL    HW266729   7.141   7.224   3.936
20628SOL     OW66730   6.393   6.191   5.189
20628SOL    HW166731   6.346   6.188   5.278
20628SOL    HW266732   6.342   6.136   5.123
20629SOL     OW66733   6.980   6.055   5.398
20629SOL    HW166734   6.960   6.098   5.486
20629SOL    HW266735   7.058   5.993   5.407
20630SOL     OW66736   6.559   6.476   5.296
20630SOL    HW166737   6.605   6.392   5.267
20630SOL    HW266738   6.503   6.510   5.221
20631SOL     OW66739   6.577   5.996   4.966
20631SOL    HW166740   6.500   6.030   5.020
20631SOL    HW266741   6.543   5.945   4.887
20632SOL     OW66742   6.627   6.287   4.153
20632SOL    HW166743   6.653   6.283   4.249
20632SOL    HW266744   6.542   6.236   4.139
20633SOL     OW66745   5.662   6.397   4.513
20633SOL    HW166746   5.761   6.385   4.522
20633SOL    HW266747   5.638   6.492   4.534
20634SOL     OW66748   5.716   7.407   5.295
20634SOL    HW166749   5.706   7.392   5.394
20634SOL    HW266750   5.630   7.443   5.259
20635SOL     OW66751   6.451   5.934   3.919
20635SOL    HW166752   6.510   5.997   3.870
20635SOL    HW266753   6.470   5.840   3.890
20636SOL     OW66754   7.305   6.171   5.555
20636SOL    HW166755   7.279   6.260   5.519
20636SOL    HW266756   7.303   6.103   5.482
20637SOL     OW66757   6.948   6.730   4.269
20637SOL    HW166758   7.031   6.701   4.221
20637SOL    HW266759   6.899   6.797   4.213
20638SOL     OW66760   6.136   5.782   4.609
20638SOL    HW166761   6.131   5.777   4.709
20638SOL    HW266762   6.138   5.878   4.580
20639SOL     OW66763   6.594   7.042   4.201
20639SOL    HW166764   6.548   7.114   4.149
20639SOL    HW266765   6.590   7.062   4.299
20640SOL     OW66766   5.937   7.387   4.577
20640SOL    HW166767   5.987   7.301   4.583
20640SOL    HW266768   6.002   7.464   4.574
20641SOL     OW66769   7.381   6.652   4.597
20641SOL    HW166770   7.319   6.637   4.521
20641SOL    HW266771   7.329   6.663   4.682
20642SOL     OW66772   6.813   7.136   5.230
20642SOL    HW166773   6.819   7.059   5.294
20642SOL    HW266774   6.761   7.110   5.150
20643SOL     OW66775   5.907   6.529   3.966
20643SOL    HW166776   5.989   6.568   3.924
20643SOL    HW266777   5.880   6.447   3.917
20644SOL     OW66778   7.044   6.321   4.452
20644SOL    HW166779   7.039   6.256   4.527
20644SOL    HW266780   7.124   6.380   4.465
20645SOL     OW66781   6.047   6.852   5.451
20645SOL    HW166782   5.997   6.853   5.365
20645SOL    HW266783   5.984   6.834   5.527
20646SOL     OW66784   6.697   7.362   3.961
20646SOL    HW166785   6.637   7.300   4.011
20646SOL    HW266786   6.728   7.318   3.876
20647SOL     OW66787   5.788   5.871   5.222
20647SOL    HW166788   5.708   5.931   5.209
20647SOL    HW266789   5.778   5.822   5.308
20648SOL     OW66790   7.218   6.963   3.805
20648SOL    HW166791   7.186   7.057   3.795
20648SOL    HW266792   7.142   6.900   3.793
20649SOL     OW66793   6.050   7.329   4.047
20649SOL    HW166794   6.083   7.368   4.133
20649SOL    HW266795   6.126   7.322   3.982
20650SOL     OW66796   6.986   5.693   4.150
20650SOL    HW166797   6.962   5.656   4.060
20650SOL    HW266798   7.085   5.709   4.154
20651SOL     OW66799   5.835   7.371   4.965
20651SOL    HW166800   5.892   7.306   5.015
20651SOL    HW266801   5.819   7.338   4.872
20652SOL     OW66802   6.526   7.284   4.628
20652SOL    HW166803   6.606   7.227   4.649
20652SOL    HW266804   6.477   7.244   4.551
20653SOL     OW66805   5.968   6.286   4.204
20653SOL    HW166806   6.013   6.196   4.201
20653SOL    HW266807   5.874   6.275   4.237
20654SOL     OW66808   7.133   5.808   5.453
20654SOL    HW166809   7.128   5.845   5.545
20654SOL    HW266810   7.061   5.739   5.441
20655SOL     OW66811   6.200   5.708   3.841
20655SOL    HW166812   6.298   5.686   3.848
20655SOL    HW266813   6.169   5.691   3.748
20656SOL     OW66814   6.367   5.850   5.473
20656SOL    HW166815   6.434   5.789   5.516
20656SOL    HW266816   6.294   5.869   5.538
20657SOL     OW66817   6.474   7.100   4.919
20657SOL    HW166818   6.451   7.075   4.825
20657SOL    HW266819   6.535   7.031   4.958
20658SOL     OW66820   6.937   6.176   5.157
20658SOL    HW166821   6.965   6.133   5.242
20658SOL    HW266822   6.962   6.272   5.158
20659SOL     OW66823   6.389   6.988   4.648
20659SOL    HW166824   6.479   7.002   4.606
20659SOL    HW266825   6.318   6.990   4.577
20660SOL     OW66826   6.508   6.089   4.623
20660SOL    HW166827   6.483   6.080   4.527
20660SOL    HW266828   6.556   6.007   4.654
20661SOL     OW66829   7.020   6.774   3.765
20661SOL    HW166830   7.052   6.698   3.822
20661SOL    HW266831   6.928   6.801   3.795
20662SOL     OW66832   5.883   5.621   3.895
20662SOL    HW166833   5.932   5.705   3.874
20662SOL    HW266834   5.945   5.556   3.940
20663SOL     OW66835   6.521   5.822   4.204
20663SOL    HW166836   6.473   5.863   4.126
20663SOL    HW266837   6.620   5.820   4.185
20664SOL     OW66838   6.662   6.269   5.188
20664SOL    HW166839   6.582   6.208   5.191
20664SOL    HW266840   6.743   6.216   5.164
20665SOL     OW66841   6.813   7.156   4.517
20665SOL    HW166842   6.834   7.230   4.452
20665SOL    HW266843   6.881   7.156   4.590
20666SOL     OW66844   6.045   6.738   4.465
20666SOL    HW166845   5.974   6.711   4.530
20666SOL    HW266846   6.019   6.710   4.372
20667SOL     OW66847   6.857   7.383   4.315
20667SOL    HW166848   6.901   7.447   4.251
20667SOL    HW266849   6.807   7.435   4.385
20668SOL     OW66850   6.618   6.135   3.740
20668SOL    HW166851   6.577   6.217   3.701
20668SOL    HW266852   6.682   6.161   3.813
20669SOL     OW66853   5.664   6.142   5.110
20669SOL    HW166854   5.756   6.141   5.069
20669SOL    HW266855   5.658   6.216   5.177
20670SOL     OW66856   6.147   5.808   4.871
20670SOL    HW166857   6.185   5.724   4.908
20670SOL    HW266858   6.059   5.827   4.915
20671SOL     OW66859   6.452   6.040   4.366
20671SOL    HW166860   6.420   6.112   4.304
20671SOL    HW266861   6.476   5.959   4.313
20672SOL     OW66862   6.603   5.625   4.477
20672SOL    HW166863   6.531   5.630   4.408
20672SOL    HW266864   6.579   5.556   4.546
20673SOL     OW66865   7.015   6.759   4.591
20673SOL    HW166866   6.960   6.675   4.584
20673SOL    HW266867   7.041   6.788   4.499
20674SOL     OW66868   7.052   6.176   4.716
20674SOL    HW166869   7.022   6.081   4.723
20674SOL    HW266870   7.125   6.192   4.782
20675SOL     OW66871   7.443   6.419   4.101
20675SOL    HW166872   7.485   6.355   4.165
20675SOL    HW266873   7.405   6.368   4.023
20676SOL     OW66874   6.074   6.971   3.898
20676SOL    HW166875   5.987   6.956   3.945
20676SOL    HW266876   6.057   6.997   3.803
20677SOL     OW66877   7.250   6.866   4.381
20677SOL    HW166878   7.349   6.874   4.395
20677SOL    HW266879   7.205   6.950   4.412
20678SOL     OW66880   6.976   6.161   3.802
20678SOL    HW166881   6.922   6.140   3.883
20678SOL    HW266882   7.067   6.120   3.811
20679SOL     OW66883   6.113   5.842   4.052
20679SOL    HW166884   6.140   5.783   3.977
20679SOL    HW266885   6.113   5.937   4.021
20680SOL     OW66886   7.340   6.809   5.312
20680SOL    HW166887   7.431   6.770   5.299
20680SOL    HW266888   7.348   6.905   5.336
20681SOL     OW66889   6.650   6.933   5.064
20681SOL    HW166890   6.570   6.910   5.119
20681SOL    HW266891   6.733   6.907   5.113
20682SOL     OW66892   7.178   7.215   5.349
20682SOL    HW166893   7.205   7.249   5.259
20682SOL    HW266894   7.257   7.177   5.395
20683SOL     OW66895   6.697   6.781   4.824
20683SOL    HW166896   6.657   6.825   4.905
20683SOL    HW266897   6.656   6.818   4.741
20684SOL     OW66898   7.224   6.685   4.803
20684SOL    HW166899   7.229   6.766   4.862
20684SOL    HW266900   7.138   6.687   4.752
20685SOL     OW66901   6.501   5.675   5.126
20685SOL    HW166902   6.526   5.655   5.031
20685SOL    HW266903   6.573   5.731   5.168
20686SOL     OW66904   6.566   6.702   5.443
20686SOL    HW166905   6.467   6.708   5.453
20686SOL    HW266906   6.589   6.622   5.387
20687SOL     OW66907   6.291   6.636   4.092
20687SOL    HW166908   6.277   6.643   4.191
20687SOL    HW266909   6.375   6.585   4.074
20688SOL     OW66910   5.996   6.399   4.975
20688SOL    HW166911   6.082   6.411   5.025
20688SOL    HW266912   5.954   6.312   5.002
20689SOL     OW66913   6.860   5.972   4.986
20689SOL    HW166914   6.881   6.046   5.050
20689SOL    HW266915   6.771   5.989   4.943
20690SOL     OW66916   5.650   7.150   5.055
20690SOL    HW166917   5.604   7.232   5.021
20690SOL    HW266918   5.748   7.169   5.064
20691SOL     OW66919   5.953   6.686   4.225
20691SOL    HW166920   5.946   6.769   4.169
20691SOL    HW266921   5.957   6.606   4.165
20692SOL     OW66922   6.152   6.123   4.589
20692SOL    HW166923   6.164   6.189   4.515
20692SOL    HW266924   6.198   6.157   4.672
20693SOL     OW66925   6.838   6.934   4.112
20693SOL    HW166926   6.888   7.011   4.152
20693SOL    HW266927   6.743   6.936   4.144
20694SOL     OW66928   6.858   7.031   4.866
20694SOL    HW166929   6.905   7.044   4.953
20694SOL    HW266930   6.792   6.957   4.875
20695SOL     OW66931   7.168   6.225   4.196
20695SOL    HW166932   7.137   6.286   4.269
20695SOL    HW266933   7.218   6.277   4.127
20696SOL     OW66934   5.940   7.096   5.053
20696SOL    HW166935   5.919   7.052   4.966
20696SOL    HW266936   6.037   7.122   5.056
20697SOL     OW66937   5.988   6.337   5.322
20697SOL    HW166938   6.056   6.392   5.275
20697SOL    HW266939   6.028   6.249   5.349
20698SOL     OW66940   7.173   6.365   5.394
20698SOL    HW166941   7.081   6.403   5.389
20698SOL    HW266942   7.233   6.412   5.329
20699SOL     OW66943   6.599   5.691   5.494
20699SOL    HW166944   6.605   5.776   5.442
20699SOL    HW266945   6.631   5.615   5.437
20700SOL     OW66946   6.090   5.636   5.464
20700SOL    HW166947   6.048   5.579   5.394
20700SOL    HW266948   6.024   5.705   5.496
20701SOL     OW66949   6.159   6.456   4.753
20701SOL    HW166950   6.203   6.545   4.744
20701SOL    HW266951   6.096   6.456   4.830
20702SOL     OW66952   6.946   6.448   4.769
20702SOL    HW166953   6.871   6.448   4.703
20702SOL    HW266954   6.983   6.356   4.778
20703SOL     OW66955   6.795   6.111   3.999
20703SOL    HW166956   6.808   6.027   4.053
20703SOL    HW266957   6.766   6.185   4.059
20704SOL     OW66958   5.893   5.799   4.955
20704SOL    HW166959   5.870   5.836   5.045
20704SOL    HW266960   5.863   5.704   4.949
20705SOL     OW66961   5.623   6.896   5.006
20705SOL    HW166962   5.676   6.847   5.074
20705SOL    HW266963   5.645   6.994   5.011
20706SOL     OW66964   7.314   6.521   5.578
20706SOL    HW166965   7.268   6.514   5.489
20706SOL    HW266966   7.252   6.565   5.644
20707SOL     OW66967   5.893   5.649   4.342
20707SOL    HW166968   5.882   5.743   4.375
20707SOL    HW266969   5.888   5.586   4.419
20708SOL     OW66970   7.208   5.953   4.098
20708SOL    HW166971   7.210   5.877   4.162
20708SOL    HW266972   7.160   6.030   4.138
20709SOL     OW66973   6.609   6.352   4.690
20709SOL    HW166974   6.624   6.373   4.786
20709SOL    HW266975   6.579   6.257   4.681
20710SOL     OW66976   6.566   7.159   5.424
20710SOL    HW166977   6.546   7.203   5.336
20710SOL    HW266978   6.605   7.068   5.408
20711SOL     OW66979   5.936   6.484   5.528
20711SOL    HW166980   6.012   6.528   5.576
20711SOL    HW266981   5.971   6.437   5.446
20712SOL     OW66982   7.126   5.860   3.849
20712SOL    HW166983   7.065   5.785   3.872
20712SOL    HW266984   7.148   5.912   3.932
20713SOL     OW66985   6.889   6.424   3.766
20713SOL    HW166986   6.923   6.331   3.781
20713SOL    HW266987   6.907   6.451   3.671
20714SOL     OW66988   6.654   6.919   4.573
20714SOL    HW166989   6.661   6.835   4.518
20714SOL    HW266990   6.716   6.988   4.537
20715SOL     OW66991   5.905   6.396   4.673
20715SOL    HW166992   5.998   6.432   4.678
20715SOL    HW266993   5.899   6.311   4.725
20716SOL     OW66994   5.925   6.095   4.730
20716SOL    HW166995   5.873   6.012   4.713
20716SOL    HW266996   6.002   6.100   4.666
20717SOL     OW66997   6.724   5.966   5.402
20717SOL    HW166998   6.679   6.029   5.466
20717SOL    HW266999   6.817   5.997   5.385
20718SOL     OW67000   6.746   5.793   5.201
20718SOL    HW167001   6.746   5.857   5.278
20718SOL    HW267002   6.774   5.841   5.118
20719SOL     OW67003   5.594   6.912   3.924
20719SOL    HW167004   5.501   6.933   3.893
20719SOL    HW267005   5.604   6.813   3.937
20720SOL     OW67006   5.674   7.387   4.651
20720SOL    HW167007   5.632   7.301   4.624
20720SOL    HW267008   5.768   7.390   4.617
20721SOL     OW67009   6.090   7.154   4.634
20721SOL    HW167010   6.156   7.228   4.643
20721SOL    HW267011   6.134   7.075   4.592
20722SOL     OW67012   6.588   6.382   4.962
20722SOL    HW167013   6.629   6.350   5.048
20722SOL    HW267014   6.492   6.355   4.959
20723SOL     OW67015   5.626   6.130   4.838
20723SOL    HW167016   5.711   6.097   4.797
20723SOL    HW267017   5.639   6.145   4.936
20724SOL     OW67018   5.775   6.106   5.446
20724SOL    HW167019   5.834   6.066   5.376
20724SOL    HW267020   5.717   6.177   5.405
20725SOL     OW67021   6.955   6.536   5.384
20725SOL    HW167022   6.994   6.625   5.404
20725SOL    HW267023   6.965   6.516   5.287
20726SOL     OW67024   6.401   6.158   4.049
20726SOL    HW167025   6.408   6.069   4.003
20726SOL    HW267026   6.307   6.192   4.041
20727SOL     OW67027   7.243   6.190   4.930
20727SOL    HW167028   7.205   6.121   4.992
20727SOL    HW267029   7.325   6.154   4.886
20728SOL     OW67030   5.838   7.150   5.468
20728SOL    HW167031   5.808   7.207   5.544
20728SOL    HW267032   5.831   7.053   5.494
20729SOL     OW67033   6.257   6.050   4.993
20729SOL    HW167034   6.223   5.961   4.963
20729SOL    HW267035   6.283   6.104   4.913
20730SOL     OW67036   6.516   7.264   5.189
20730SOL    HW167037   6.492   7.246   5.094
20730SOL    HW267038   6.546   7.358   5.199
20731SOL     OW67039   6.059   6.086   3.915
20731SOL    HW167040   6.120   6.166   3.919
20731SOL    HW267041   5.964   6.117   3.922
20732SOL     OW67042   5.745   6.723   5.190
20732SOL    HW167043   5.767   6.662   5.266
20732SOL    HW267044   5.755   6.674   5.104
20733SOL     OW67045   6.933   6.645   4.958
20733SOL    HW167046   6.957   6.582   4.884
20733SOL    HW267047   6.843   6.685   4.940
20734SOL     OW67048   6.888   6.441   4.033
20734SOL    HW167049   6.802   6.410   4.075
20734SOL    HW267050   6.884   6.427   3.934
20735SOL     OW67051   7.345   7.333   4.878
20735SOL    HW167052   7.406   7.363   4.805
20735SOL    HW267053   7.307   7.244   4.856
20736SOL     OW67054   6.838   7.317   4.852
20736SOL    HW167055   6.922   7.322   4.798
20736SOL    HW267056   6.815   7.221   4.870
20737SOL     OW67057   5.669   6.844   4.746
20737SOL    HW167058   5.664   6.843   4.846
20737SOL    HW267059   5.586   6.803   4.708
20738SOL     OW67060   6.274   7.248   5.440
20738SOL    HW167061   6.218   7.329   5.449
20738SOL    HW267062   6.326   7.252   5.354
20739SOL     OW67063   7.312   5.721   4.247
20739SOL    HW167064   7.385   5.704   4.180
20739SOL    HW267065   7.281   5.634   4.285
20740SOL     OW67066   6.974   7.159   4.201
20740SOL    HW167067   7.041   7.171   4.127
20740SOL    HW267068   6.934   7.248   4.224
20741SOL     OW67069   5.716   7.380   5.575
20741SOL    HW167070   5.675   7.306   5.628
20741SOL    HW267071   5.780   7.431   5.633
20742SOL     OW67072   6.866   6.513   4.396
20742SOL    HW167073   6.926   6.432   4.398
20742SOL    HW267074   6.906   6.582   4.336
20743SOL     OW67075   6.416   6.859   5.146
20743SOL    HW167076   6.411   6.892   5.241
20743SOL    HW267077   6.330   6.878   5.100
20744SOL     OW67078   6.258   7.202   3.878
20744SOL    HW167079   6.267   7.212   3.779
20744SOL    HW267080   6.218   7.113   3.899
20745SOL     OW67081   7.236   7.306   5.118
20745SOL    HW167082   7.289   7.316   5.034
20745SOL    HW267083   7.209   7.396   5.152
20746SOL     OW67084   7.427   5.761   4.687
20746SOL    HW167085   7.466   5.676   4.651
20746SOL    HW267086   7.329   5.763   4.668
20747SOL     OW67087   5.849   5.912   4.444
20747SOL    HW167088   5.770   5.963   4.410
20747SOL    HW267089   5.840   5.897   4.542
20748SOL     OW67090   6.780   7.198   3.755
20748SOL    HW167091   6.786   7.105   3.792
20748SOL    HW267092   6.721   7.198   3.675
20749SOL     OW67093   6.408   6.588   5.096
20749SOL    HW167094   6.448   6.587   5.004
20749SOL    HW267095   6.418   6.680   5.136
20750SOL     OW67096   6.502   6.496   4.015
20750SOL    HW167097   6.565   6.534   3.947
20750SOL    HW267098   6.542   6.413   4.054
20751SOL     OW67099   7.090   7.193   3.768
20751SOL    HW167100   6.998   7.230   3.775
20751SOL    HW267101   7.128   7.213   3.678
20752SOL     OW67102   5.958   6.874   5.214
20752SOL    HW167103   5.945   6.967   5.180
20752SOL    HW267104   5.874   6.822   5.201
20753SOL     OW67105   7.200   6.878   5.013
20753SOL    HW167106   7.260   6.881   5.093
20753SOL    HW267107   7.125   6.942   5.026
20754SOL     OW67108   6.625   6.684   4.420
20754SOL    HW167109   6.555   6.637   4.474
20754SOL    HW267110   6.684   6.616   4.377
20755SOL     OW67111   6.600   5.822   4.695
20755SOL    HW167112   6.592   5.786   4.602
20755SOL    HW267113   6.598   5.746   4.760
20756SOL     OW67114   6.176   7.073   4.215
20756SOL    HW167115   6.218   7.015   4.145
20756SOL    HW267116   6.132   7.152   4.171
20757SOL     OW67117   7.295   5.971   5.105
20757SOL    HW167118   7.368   6.040   5.109
20757SOL    HW267119   7.323   5.896   5.046
20758SOL     OW67120   5.841   6.934   4.014
20758SOL    HW167121   5.745   6.935   3.987
20758SOL    HW267122   5.853   6.987   4.098
20759SOL     OW67123   5.691   6.599   5.450
20759SOL    HW167124   5.614   6.566   5.504
20759SOL    HW267125   5.776   6.569   5.492
20760SOL     OW67126   6.258   5.789   5.213
20760SOL    HW167127   6.348   5.773   5.173
20760SOL    HW267128   6.266   5.794   5.312
20761SOL     OW67129   5.661   5.931   3.757
20761SOL    HW167130   5.569   5.903   3.728
20761SOL    HW267131   5.692   6.008   3.701
20762SOL     OW67132   7.026   6.442   5.122
20762SOL    HW167133   6.969   6.494   5.059
20762SOL    HW267134   7.122   6.454   5.098
20763SOL     OW67135   5.658   5.752   4.042
20763SOL    HW167136   5.641   5.835   3.988
20763SOL    HW267137   5.748   5.715   4.020
20764SOL     OW67138   6.769   6.921   3.843
20764SOL    HW167139   6.670   6.910   3.845
20764SOL    HW267140   6.803   6.936   3.936
20765SOL     OW67141   6.199   6.428   5.155
20765SOL    HW167142   6.255   6.509   5.138
20765SOL    HW267143   6.258   6.348   5.158
20766SOL     OW67144   7.079   7.353   4.683
20766SOL    HW167145   7.112   7.417   4.614
20766SOL    HW267146   7.145   7.347   4.758
20767SOL     OW67147   6.302   6.151   5.432
20767SOL    HW167148   6.321   6.216   5.506
20767SOL    HW267149   6.362   6.071   5.441
20768SOL     OW67150   7.036   6.806   5.357
20768SOL    HW167151   7.027   6.796   5.456
20768SOL    HW267152   7.132   6.799   5.331
20769SOL     OW67153   5.976   7.327   5.284
20769SOL    HW167154   5.885   7.368   5.282
20769SOL    HW267155   5.969   7.233   5.316
20770SOL     OW67156   7.260   6.469   4.978
20770SOL    HW167157   7.233   6.380   4.941
20770SOL    HW267158   7.261   6.537   4.905
20771SOL     OW67159   6.811   5.911   4.173
20771SOL    HW167160   6.876   5.837   4.162
20771SOL    HW267161   6.831   5.961   4.257
20772SOL     OW67162   6.180   6.331   4.376
20772SOL    HW167163   6.230   6.416   4.357
20772SOL    HW267164   6.092   6.333   4.328
20773SOL     OW67165   7.363   5.928   5.366
20773SOL    HW167166   7.346   5.959   5.272
20773SOL    HW267167   7.279   5.891   5.404
20774SOL     OW67168   7.316   6.520   5.241
20774SOL    HW167169   7.354   6.611   5.256
20774SOL    HW267170   7.308   6.503   5.142
20775SOL     OW67171   6.445   6.960   3.740
20775SOL    HW167172   6.399   6.975   3.828
20775SOL    HW267173   6.489   7.045   3.710
20776SOL     OW67174   6.247   7.376   4.677
20776SOL    HW167175   6.201   7.464   4.664
20776SOL    HW267176   6.346   7.388   4.670
20777SOL     OW67177   6.445   6.542   4.585
20777SOL    HW167178   6.499   6.473   4.633
20777SOL    HW267179   6.413   6.611   4.651
20778SOL     OW67180   6.669   6.570   3.811
20778SOL    HW167181   6.646   6.623   3.729
20778SOL    HW267182   6.750   6.514   3.792
20779SOL     OW67183   7.447   7.155   4.575
20779SOL    HW167184   7.376   7.143   4.505
20779SOL    HW267185   7.448   7.076   4.635
20780SOL     OW67186   5.807   6.900   5.568
20780SOL    HW167187   5.742   6.827   5.547
20780SOL    HW267188   5.811   6.914   5.666
20781SOL     OW67189   5.665   6.826   4.377
20781SOL    HW167190   5.664   6.779   4.465
20781SOL    HW267191   5.747   6.798   4.326
20782SOL     OW67192   6.258   6.977   5.348
20782SOL    HW167193   6.180   6.927   5.386
20782SOL    HW267194   6.255   7.072   5.379
20783SOL     OW67195   7.410   5.778   4.951
20783SOL    HW167196   7.406   5.688   4.995
20783SOL    HW267197   7.413   5.767   4.852
20784SOL     OW67198   6.014   6.010   4.244
20784SOL    HW167199   6.044   5.938   4.182
20784SOL    HW267200   5.975   5.970   4.327
20785SOL     OW67201   7.291   7.073   4.828
20785SOL    HW167202   7.198   7.048   4.801
20785SOL    HW267203   7.317   7.023   4.910
20786SOL     OW67204   5.903   6.133   5.004
20786SOL    HW167205   5.941   6.074   5.076
20786SOL    HW267206   5.943   6.107   4.916
20787SOL     OW67207   6.398   7.172   4.411
20787SOL    HW167208   6.430   7.182   4.317
20787SOL    HW267209   6.319   7.110   4.413
20788SOL     OW67210   7.010   5.800   4.836
20788SOL    HW167211   7.062   5.735   4.891
20788SOL    HW267212   6.961   5.863   4.897
20789SOL     OW67213   6.587   5.620   4.878
20789SOL    HW167214   6.524   5.548   4.847
20789SOL    HW267215   6.680   5.584   4.878
20790SOL     OW67216   6.356   6.916   4.025
20790SOL    HW167217   6.310   6.829   4.042
20790SOL    HW267218   6.447   6.913   4.066
20791SOL     OW67219   6.204   7.153   5.008
20791SOL    HW167220   6.199   7.235   5.065
20791SOL    HW267221   6.293   7.150   4.963
20792SOL     OW67222   6.938   5.638   3.892
20792SOL    HW167223   6.973   5.597   3.808
20792SOL    HW267224   6.848   5.600   3.912
20793SOL     OW67225   6.886   6.039   4.415
20793SOL    HW167226   6.827   6.119   4.419
20793SOL    HW267227   6.901   6.004   4.508
20794SOL     OW67228   7.179   5.807   4.606
20794SOL    HW167229   7.095   5.806   4.660
20794SOL    HW267230   7.181   5.890   4.550
20795SOL     OW67231   5.625   6.663   4.024
20795SOL    HW167232   5.724   6.652   4.015
20795SOL    HW267233   5.585   6.577   4.056
20796SOL     OW67234   6.461   7.232   4.061
20796SOL    HW167235   6.384   7.197   4.007
20796SOL    HW267236   6.429   7.303   4.123
20797SOL     OW67237   5.816   6.214   5.699
20797SOL    HW167238   5.723   6.212   5.736
20797SOL    HW267239   5.817   6.175   5.607
20798SOL     OW67240   5.811   5.861   6.582
20798SOL    HW167241   5.846   5.844   6.674
20798SOL    HW267242   5.723   5.816   6.570
20799SOL     OW67243   5.605   5.954   6.233
20799SOL    HW167244   5.523   5.997   6.272
20799SOL    HW267245   5.577   5.881   6.170
20800SOL     OW67246   6.155   6.861   6.751
20800SOL    HW167247   6.062   6.854   6.714
20800SOL    HW267248   6.166   6.950   6.795
20801SOL     OW67249   7.141   7.097   6.289
20801SOL    HW167250   7.084   7.081   6.370
20801SOL    HW267251   7.082   7.107   6.209
20802SOL     OW67252   6.721   6.289   6.303
20802SOL    HW167253   6.778   6.367   6.278
20802SOL    HW267254   6.661   6.315   6.379
20803SOL     OW67255   7.341   6.193   5.817
20803SOL    HW167256   7.329   6.180   5.718
20803SOL    HW267257   7.311   6.112   5.866
20804SOL     OW67258   6.354   6.730   6.609
20804SOL    HW167259   6.276   6.747   6.669
20804SOL    HW267260   6.388   6.817   6.573
20805SOL     OW67261   6.436   6.384   7.409
20805SOL    HW167262   6.432   6.460   7.474
20805SOL    HW267263   6.458   6.420   7.318
20806SOL     OW67264   6.271   6.598   6.251
20806SOL    HW167265   6.340   6.582   6.321
20806SOL    HW267266   6.198   6.655   6.289
20807SOL     OW67267   6.272   6.747   7.389
20807SOL    HW167268   6.332   6.826   7.403
20807SOL    HW267269   6.186   6.778   7.348
20808SOL     OW67270   5.921   7.021   6.647
20808SOL    HW167271   5.843   6.990   6.594
20808SOL    HW267272   5.979   7.079   6.590
20809SOL     OW67273   7.046   7.091   6.925
20809SOL    HW167274   7.070   7.185   6.951
20809SOL    HW267275   7.030   7.037   7.007
20810SOL     OW67276   6.024   5.978   7.085
20810SOL    HW167277   6.106   5.922   7.094
20810SOL    HW267278   5.943   5.920   7.089
20811SOL     OW67279   7.189   6.033   6.323
20811SOL    HW167280   7.115   6.079   6.273
20811SOL    HW267281   7.240   6.101   6.376
20812SOL     OW67282   5.817   7.299   6.069
20812SOL    HW167283   5.851   7.376   6.123
20812SOL    HW267284   5.861   7.299   5.979
20813SOL     OW67285   5.816   7.020   6.124
20813SOL    HW167286   5.790   7.116   6.124
20813SOL    HW267287   5.745   6.966   6.169
20814SOL     OW67288   5.826   6.677   6.472
20814SOL    HW167289   5.840   6.593   6.524
20814SOL    HW267290   5.771   6.741   6.527
20815SOL     OW67291   6.206   7.372   7.025
20815SOL    HW167292   6.114   7.355   7.060
20815SOL    HW267293   6.234   7.464   7.051
20816SOL     OW67294   6.192   6.550   5.709
20816SOL    HW167295   6.199   6.634   5.655
20816SOL    HW267296   6.238   6.563   5.797
20817SOL     OW67297   7.180   5.700   7.066
20817SOL    HW167298   7.162   5.767   6.994
20817SOL    HW267299   7.177   5.746   7.155
20818SOL     OW67300   5.708   6.229   6.149
20818SOL    HW167301   5.663   6.141   6.166
20818SOL    HW267302   5.707   6.283   6.233
20819SOL     OW67303   7.428   7.353   5.945
20819SOL    HW167304   7.482   7.324   6.025
20819SOL    HW267305   7.458   7.443   5.916
20820SOL     OW67306   5.613   7.182   5.703
20820SOL    HW167307   5.594   7.086   5.724
20820SOL    HW267308   5.580   7.240   5.778
20821SOL     OW67309   7.275   6.508   6.198
20821SOL    HW167310   7.370   6.479   6.206
20821SOL    HW267311   7.267   6.573   6.123
20822SOL     OW67312   7.227   6.694   6.018
20822SOL    HW167313   7.313   6.696   5.966
20822SOL    HW267314   7.241   6.741   6.106
20823SOL     OW67315   5.699   6.323   7.183
20823SOL    HW167316   5.787   6.310   7.228
20823SOL    HW267317   5.686   6.420   7.161
20824SOL     OW67318   6.199   6.951   6.312
20824SOL    HW167319   6.150   6.864   6.321
20824SOL    HW267320   6.176   6.994   6.225
20825SOL     OW67321   6.879   6.814   7.009
20825SOL    HW167322   6.916   6.741   6.951
20825SOL    HW267323   6.931   6.819   7.094
20826SOL     OW67324   6.395   5.590   6.088
20826SOL    HW167325   6.435   5.681   6.079
20826SOL    HW267326   6.295   5.598   6.094
20827SOL     OW67327   5.783   6.562   6.850
20827SOL    HW167328   5.872   6.517   6.836
20827SOL    HW267329   5.710   6.497   6.831
20828SOL     OW67330   7.111   6.585   5.776
20828SOL    HW167331   7.048   6.509   5.789
20828SOL    HW267332   7.159   6.603   5.862
20829SOL     OW67333   6.773   7.378   7.202
20829SOL    HW167334   6.797   7.438   7.126
20829SOL    HW267335   6.780   7.283   7.172
20830SOL     OW67336   5.903   5.837   7.387
20830SOL    HW167337   5.974   5.908   7.393
20830SOL    HW267338   5.815   5.876   7.415
20831SOL     OW67339   7.052   7.003   6.539
20831SOL    HW167340   6.993   7.009   6.619
20831SOL    HW267341   7.037   6.915   6.493
20832SOL     OW67342   7.253   7.300   6.158
20832SOL    HW167343   7.212   7.277   6.070
20832SOL    HW267344   7.235   7.226   6.223
20833SOL     OW67345   6.184   6.315   5.856
20833SOL    HW167346   6.208   6.384   5.788
20833SOL    HW267347   6.106   6.348   5.910
20834SOL     OW67348   6.867   5.931   6.530
20834SOL    HW167349   6.781   5.881   6.517
20834SOL    HW267350   6.929   5.877   6.586
20835SOL     OW67351   7.162   7.248   5.893
20835SOL    HW167352   7.251   7.294   5.896
20835SOL    HW267353   7.141   7.224   5.798
20836SOL     OW67354   6.393   6.191   7.051
20836SOL    HW167355   6.346   6.188   7.140
20836SOL    HW267356   6.342   6.136   6.985
20837SOL     OW67357   6.980   6.055   7.260
20837SOL    HW167358   6.960   6.098   7.348
20837SOL    HW267359   7.058   5.993   7.269
20838SOL     OW67360   6.559   6.476   7.158
20838SOL    HW167361   6.605   6.392   7.129
20838SOL    HW267362   6.503   6.510   7.083
20839SOL     OW67363   6.577   5.996   6.828
20839SOL    HW167364   6.500   6.030   6.882
20839SOL    HW267365   6.543   5.945   6.749
20840SOL     OW67366   6.627   6.287   6.015
20840SOL    HW167367   6.653   6.283   6.111
20840SOL    HW267368   6.542   6.236   6.001
20841SOL     OW67369   5.662   6.397   6.375
20841SOL    HW167370   5.761   6.385   6.384
20841SOL    HW267371   5.638   6.492   6.396
20842SOL     OW67372   5.716   7.407   7.157
20842SOL    HW167373   5.706   7.392   7.256
20842SOL    HW267374   5.630   7.443   7.121
20843SOL     OW67375   6.451   5.934   5.781
20843SOL    HW167376   6.510   5.997   5.732
20843SOL    HW267377   6.470   5.840   5.752
20844SOL     OW67378   7.305   6.171   7.417
20844SOL    HW167379   7.279   6.260   7.381
20844SOL    HW267380   7.303   6.103   7.344
20845SOL     OW67381   6.948   6.730   6.131
20845SOL    HW167382   7.031   6.701   6.083
20845SOL    HW267383   6.899   6.797   6.075
20846SOL     OW67384   6.136   5.782   6.471
20846SOL    HW167385   6.131   5.777   6.571
20846SOL    HW267386   6.138   5.878   6.442
20847SOL     OW67387   6.594   7.042   6.063
20847SOL    HW167388   6.548   7.114   6.011
20847SOL    HW267389   6.590   7.062   6.161
20848SOL     OW67390   5.937   7.387   6.439
20848SOL    HW167391   5.987   7.301   6.445
20848SOL    HW267392   6.002   7.464   6.436
20849SOL     OW67393   7.381   6.652   6.459
20849SOL    HW167394   7.319   6.637   6.383
20849SOL    HW267395   7.329   6.663   6.544
20850SOL     OW67396   6.813   7.136   7.092
20850SOL    HW167397   6.819   7.059   7.156
20850SOL    HW267398   6.761   7.110   7.012
20851SOL     OW67399   5.907   6.529   5.828
20851SOL    HW167400   5.989   6.568   5.786
20851SOL    HW267401   5.880   6.447   5.779
20852SOL     OW67402   7.044   6.321   6.314
20852SOL    HW167403   7.039   6.256   6.389
20852SOL    HW267404   7.124   6.380   6.327
20853SOL     OW67405   6.697   7.362   5.823
20853SOL    HW167406   6.637   7.300   5.873
20853SOL    HW267407   6.728   7.318   5.738
20854SOL     OW67408   5.788   5.871   7.084
20854SOL    HW167409   5.708   5.931   7.071
20854SOL    HW267410   5.778   5.822   7.170
20855SOL     OW67411   7.218   6.963   5.667
20855SOL    HW167412   7.186   7.057   5.657
20855SOL    HW267413   7.142   6.900   5.655
20856SOL     OW67414   6.986   5.693   6.012
20856SOL    HW167415   6.962   5.656   5.922
20856SOL    HW267416   7.085   5.709   6.016
20857SOL     OW67417   5.835   7.371   6.827
20857SOL    HW167418   5.892   7.306   6.877
20857SOL    HW267419   5.819   7.338   6.734
20858SOL     OW67420   6.526   7.284   6.490
20858SOL    HW167421   6.606   7.227   6.511
20858SOL    HW267422   6.477   7.244   6.413
20859SOL     OW67423   5.968   6.286   6.066
20859SOL    HW167424   6.013   6.196   6.063
20859SOL    HW267425   5.874   6.275   6.099
20860SOL     OW67426   7.133   5.808   7.315
20860SOL    HW167427   7.128   5.845   7.407
20860SOL    HW267428   7.061   5.739   7.303
20861SOL     OW67429   6.200   5.708   5.703
20861SOL    HW167430   6.298   5.686   5.710
20861SOL    HW267431   6.169   5.691   5.610
20862SOL     OW67432   6.367   5.850   7.335
20862SOL    HW167433   6.434   5.789   7.378
20862SOL    HW267434   6.294   5.869   7.400
20863SOL     OW67435   6.474   7.100   6.781
20863SOL    HW167436   6.451   7.075   6.687
20863SOL    HW267437   6.535   7.031   6.820
20864SOL     OW67438   6.937   6.176   7.019
20864SOL    HW167439   6.965   6.133   7.104
20864SOL    HW267440   6.962   6.272   7.020
20865SOL     OW67441   6.389   6.988   6.510
20865SOL    HW167442   6.479   7.002   6.468
20865SOL    HW267443   6.318   6.990   6.439
20866SOL     OW67444   6.508   6.089   6.485
20866SOL    HW167445   6.483   6.080   6.389
20866SOL    HW267446   6.556   6.007   6.516
20867SOL     OW67447   6.125   5.650   6.098
20867SOL    HW167448   6.044   5.651   6.156
20867SOL    HW267449   6.128   5.733   6.043
20868SOL     OW67450   7.020   6.774   5.627
20868SOL    HW167451   7.052   6.698   5.684
20868SOL    HW267452   6.928   6.801   5.657
20869SOL     OW67453   5.883   5.621   5.757
20869SOL    HW167454   5.932   5.705   5.736
20869SOL    HW267455   5.945   5.556   5.802
20870SOL     OW67456   6.521   5.822   6.066
20870SOL    HW167457   6.473   5.863   5.988
20870SOL    HW267458   6.620   5.820   6.047
20871SOL     OW67459   6.662   6.269   7.050
20871SOL    HW167460   6.582   6.208   7.053
20871SOL    HW267461   6.743   6.216   7.026
20872SOL     OW67462   6.813   7.156   6.379
20872SOL    HW167463   6.834   7.230   6.314
20872SOL    HW267464   6.881   7.156   6.452
20873SOL     OW67465   6.045   6.738   6.327
20873SOL    HW167466   5.974   6.711   6.392
20873SOL    HW267467   6.019   6.710   6.234
20874SOL     OW67468   6.857   7.383   6.177
20874SOL    HW167469   6.901   7.447   6.113
20874SOL    HW267470   6.807   7.435   6.247
20875SOL     OW67471   6.618   6.135   5.602
20875SOL    HW167472   6.577   6.217   5.563
20875SOL    HW267473   6.682   6.161   5.675
20876SOL     OW67474   5.664   6.142   6.972
20876SOL    HW167475   5.756   6.141   6.931
20876SOL    HW267476   5.658   6.216   7.039
20877SOL     OW67477   6.147   5.808   6.733
20877SOL    HW167478   6.185   5.724   6.770
20877SOL    HW267479   6.059   5.827   6.777
20878SOL     OW67480   6.452   6.040   6.228
20878SOL    HW167481   6.420   6.112   6.166
20878SOL    HW267482   6.476   5.959   6.175
20879SOL     OW67483   6.603   5.625   6.339
20879SOL    HW167484   6.531   5.630   6.270
20879SOL    HW267485   6.579   5.556   6.408
20880SOL     OW67486   7.015   6.759   6.453
20880SOL    HW167487   6.960   6.675   6.446
20880SOL    HW267488   7.041   6.788   6.361
20881SOL     OW67489   7.052   6.176   6.578
20881SOL    HW167490   7.022   6.081   6.585
20881SOL    HW267491   7.125   6.192   6.644
20882SOL     OW67492   7.443   6.419   5.963
20882SOL    HW167493   7.485   6.355   6.027
20882SOL    HW267494   7.405   6.368   5.885
20883SOL     OW67495   6.074   6.971   5.760
20883SOL    HW167496   5.987   6.956   5.807
20883SOL    HW267497   6.057   6.997   5.665
20884SOL     OW67498   7.250   6.866   6.243
20884SOL    HW167499   7.349   6.874   6.257
20884SOL    HW267500   7.205   6.950   6.274
20885SOL     OW67501   6.976   6.161   5.664
20885SOL    HW167502   6.922   6.140   5.745
20885SOL    HW267503   7.067   6.120   5.673
20886SOL     OW67504   6.113   5.842   5.914
20886SOL    HW167505   6.140   5.783   5.839
20886SOL    HW267506   6.113   5.937   5.883
20887SOL     OW67507   7.340   6.809   7.174
20887SOL    HW167508   7.431   6.770   7.161
20887SOL    HW267509   7.348   6.905   7.198
20888SOL     OW67510   6.650   6.933   6.926
20888SOL    HW167511   6.570   6.910   6.981
20888SOL    HW267512   6.733   6.907   6.975
20889SOL     OW67513   7.178   7.215   7.211
20889SOL    HW167514   7.205   7.249   7.121
20889SOL    HW267515   7.257   7.177   7.257
20890SOL     OW67516   6.697   6.781   6.686
20890SOL    HW167517   6.657   6.825   6.767
20890SOL    HW267518   6.656   6.818   6.603
20891SOL     OW67519   7.224   6.685   6.665
20891SOL    HW167520   7.229   6.766   6.724
20891SOL    HW267521   7.138   6.687   6.614
20892SOL     OW67522   6.501   5.675   6.988
20892SOL    HW167523   6.526   5.655   6.893
20892SOL    HW267524   6.573   5.731   7.030
20893SOL     OW67525   6.566   6.702   7.305
20893SOL    HW167526   6.467   6.708   7.315
20893SOL    HW267527   6.589   6.622   7.249
20894SOL     OW67528   6.291   6.636   5.954
20894SOL    HW167529   6.277   6.643   6.053
20894SOL    HW267530   6.375   6.585   5.936
20895SOL     OW67531   5.996   6.399   6.837
20895SOL    HW167532   6.082   6.411   6.887
20895SOL    HW267533   5.954   6.312   6.864
20896SOL     OW67534   6.860   5.972   6.848
20896SOL    HW167535   6.881   6.046   6.912
20896SOL    HW267536   6.771   5.989   6.805
20897SOL     OW67537   5.650   7.150   6.917
20897SOL    HW167538   5.604   7.232   6.883
20897SOL    HW267539   5.748   7.169   6.926
20898SOL     OW67540   5.953   6.686   6.087
20898SOL    HW167541   5.946   6.769   6.031
20898SOL    HW267542   5.957   6.606   6.027
20899SOL     OW67543   6.152   6.123   6.451
20899SOL    HW167544   6.164   6.189   6.377
20899SOL    HW267545   6.198   6.157   6.534
20900SOL     OW67546   6.838   6.934   5.974
20900SOL    HW167547   6.888   7.011   6.014
20900SOL    HW267548   6.743   6.936   6.006
20901SOL     OW67549   6.858   7.031   6.728
20901SOL    HW167550   6.905   7.044   6.815
20901SOL    HW267551   6.792   6.957   6.737
20902SOL     OW67552   7.168   6.225   6.058
20902SOL    HW167553   7.137   6.286   6.131
20902SOL    HW267554   7.218   6.277   5.989
20903SOL     OW67555   5.940   7.096   6.915
20903SOL    HW167556   5.919   7.052   6.828
20903SOL    HW267557   6.037   7.122   6.918
20904SOL     OW67558   5.988   6.337   7.184
20904SOL    HW167559   6.056   6.392   7.137
20904SOL    HW267560   6.028   6.249   7.211
20905SOL     OW67561   7.173   6.365   7.256
20905SOL    HW167562   7.081   6.403   7.251
20905SOL    HW267563   7.233   6.412   7.191
20906SOL     OW67564   6.599   5.691   7.356
20906SOL    HW167565   6.605   5.776   7.304
20906SOL    HW267566   6.631   5.615   7.299
20907SOL     OW67567   6.090   5.636   7.326
20907SOL    HW167568   6.048   5.579   7.256
20907SOL    HW267569   6.024   5.705   7.358
20908SOL     OW67570   6.159   6.456   6.615
20908SOL    HW167571   6.203   6.545   6.606
20908SOL    HW267572   6.096   6.456   6.692
20909SOL     OW67573   6.946   6.448   6.631
20909SOL    HW167574   6.871   6.448   6.565
20909SOL    HW267575   6.983   6.356   6.640
20910SOL     OW67576   6.795   6.111   5.861
20910SOL    HW167577   6.808   6.027   5.915
20910SOL    HW267578   6.766   6.185   5.921
20911SOL     OW67579   5.893   5.799   6.817
20911SOL    HW167580   5.870   5.836   6.907
20911SOL    HW267581   5.863   5.704   6.811
20912SOL     OW67582   5.623   6.896   6.868
20912SOL    HW167583   5.676   6.847   6.936
20912SOL    HW267584   5.645   6.994   6.873
20913SOL     OW67585   6.318   6.220   6.650
20913SOL    HW167586   6.377   6.194   6.574
20913SOL    HW267587   6.290   6.316   6.639
20914SOL     OW67588   7.314   6.521   7.440
20914SOL    HW167589   7.268   6.514   7.351
20914SOL    HW267590   7.252   6.565   7.506
20915SOL     OW67591   5.893   5.649   6.204
20915SOL    HW167592   5.882   5.743   6.237
20915SOL    HW267593   5.888   5.586   6.281
20916SOL     OW67594   7.208   5.953   5.960
20916SOL    HW167595   7.210   5.877   6.024
20916SOL    HW267596   7.160   6.030   6.000
20917SOL     OW67597   6.609   6.352   6.552
20917SOL    HW167598   6.624   6.373   6.648
20917SOL    HW267599   6.579   6.257   6.543
20918SOL     OW67600   6.566   7.159   7.286
20918SOL    HW167601   6.546   7.203   7.198
20918SOL    HW267602   6.605   7.068   7.270
20919SOL     OW67603   7.445   7.104   7.191
20919SOL    HW167604   7.459   7.131   7.096
20919SOL    HW267605   7.528   7.126   7.244
20920SOL     OW67606   5.936   6.484   7.390
20920SOL    HW167607   6.012   6.528   7.438
20920SOL    HW267608   5.971   6.437   7.308
20921SOL     OW67609   7.126   5.860   5.711
20921SOL    HW167610   7.065   5.785   5.734
20921SOL    HW267611   7.148   5.912   5.794
20922SOL     OW67612   6.889   6.424   5.628
20922SOL    HW167613   6.923   6.331   5.643
20922SOL    HW267614   6.907   6.451   5.533
20923SOL     OW67615   6.654   6.919   6.435
20923SOL    HW167616   6.661   6.835   6.380
20923SOL    HW267617   6.716   6.988   6.399
20924SOL     OW67618   5.905   6.396   6.535
20924SOL    HW167619   5.998   6.432   6.540
20924SOL    HW267620   5.899   6.311   6.587
20925SOL     OW67621   5.925   6.095   6.592
20925SOL    HW167622   5.873   6.012   6.575
20925SOL    HW267623   6.002   6.100   6.528
20926SOL     OW67624   6.724   5.966   7.264
20926SOL    HW167625   6.679   6.029   7.328
20926SOL    HW267626   6.817   5.997   7.247
20927SOL     OW67627   6.746   5.793   7.063
20927SOL    HW167628   6.746   5.857   7.140
20927SOL    HW267629   6.774   5.841   6.980
20928SOL     OW67630   5.594   6.912   5.786
20928SOL    HW167631   5.501   6.933   5.755
20928SOL    HW267632   5.604   6.813   5.799
20929SOL     OW67633   5.674   7.387   6.513
20929SOL    HW167634   5.632   7.301   6.486
20929SOL    HW267635   5.768   7.390   6.479
20930SOL     OW67636   6.090   7.154   6.496
20930SOL    HW167637   6.156   7.228   6.505
20930SOL    HW267638   6.134   7.075   6.454
20931SOL     OW67639   6.588   6.382   6.824
20931SOL    HW167640   6.629   6.350   6.910
20931SOL    HW267641   6.492   6.355   6.821
20932SOL     OW67642   5.626   6.130   6.700
20932SOL    HW167643   5.711   6.097   6.659
20932SOL    HW267644   5.639   6.145   6.798
20933SOL     OW67645   5.775   6.106   7.308
20933SOL    HW167646   5.834   6.066   7.238
20933SOL    HW267647   5.717   6.177   7.267
20934SOL     OW67648   6.955   6.536   7.246
20934SOL    HW167649   6.994   6.625   7.266
20934SOL    HW267650   6.965   6.516   7.149
20935SOL     OW67651   6.401   6.158   5.911
20935SOL    HW167652   6.408   6.069   5.865
20935SOL    HW267653   6.307   6.192   5.903
20936SOL     OW67654   7.243   6.190   6.792
20936SOL    HW167655   7.205   6.121   6.854
20936SOL    HW267656   7.325   6.154   6.748
20937SOL     OW67657   5.838   7.150   7.330
20937SOL    HW167658   5.808   7.207   7.406
20937SOL    HW267659   5.831   7.053   7.356
20938SOL     OW67660   6.257   6.050   6.855
20938SOL    HW167661   6.223   5.961   6.825
20938SOL    HW267662   6.283   6.104   6.775
20939SOL     OW67663   6.516   7.264   7.051
20939SOL    HW167664   6.492   7.246   6.956
20939SOL    HW267665   6.546   7.358   7.061
20940SOL     OW67666   6.059   6.086   5.777
20940SOL    HW167667   6.120   6.166   5.781
20940SOL    HW267668   5.964   6.117   5.784
20941SOL     OW67669   5.745   6.723   7.052
20941SOL    HW167670   5.767   6.662   7.128
20941SOL    HW267671   5.755   6.674   6.966
20942SOL     OW67672   6.933   6.645   6.820
20942SOL    HW167673   6.957   6.582   6.746
20942SOL    HW267674   6.843   6.685   6.802
20943SOL     OW67675   6.888   6.441   5.895
20943SOL    HW167676   6.802   6.410   5.937
20943SOL    HW267677   6.884   6.427   5.796
20944SOL     OW67678   7.345   7.333   6.740
20944SOL    HW167679   7.406   7.363   6.667
20944SOL    HW267680   7.307   7.244   6.718
20945SOL     OW67681   6.838   7.317   6.714
20945SOL    HW167682   6.922   7.322   6.660
20945SOL    HW267683   6.815   7.221   6.732
20946SOL     OW67684   5.669   6.844   6.608
20946SOL    HW167685   5.664   6.843   6.708
20946SOL    HW267686   5.586   6.803   6.570
20947SOL     OW67687   6.274   7.248   7.302
20947SOL    HW167688   6.218   7.329   7.311
20947SOL    HW267689   6.326   7.252   7.216
20948SOL     OW67690   7.312   5.721   6.109
20948SOL    HW167691   7.385   5.704   6.042
20948SOL    HW267692   7.281   5.634   6.147
20949SOL     OW67693   6.974   7.159   6.063
20949SOL    HW167694   7.041   7.171   5.989
20949SOL    HW267695   6.934   7.248   6.086
20950SOL     OW67696   5.716   7.380   7.437
20950SOL    HW167697   5.675   7.306   7.490
20950SOL    HW267698   5.780   7.431   7.495
20951SOL     OW67699   6.866   6.513   6.258
20951SOL    HW167700   6.926   6.432   6.260
20951SOL    HW267701   6.906   6.582   6.198
20952SOL     OW67702   6.416   6.859   7.008
20952SOL    HW167703   6.411   6.892   7.103
20952SOL    HW267704   6.330   6.878   6.962
20953SOL     OW67705   6.258   7.202   5.740
20953SOL    HW167706   6.267   7.212   5.641
20953SOL    HW267707   6.218   7.113   5.761
20954SOL     OW67708   7.236   7.306   6.980
20954SOL    HW167709   7.289   7.316   6.896
20954SOL    HW267710   7.209   7.396   7.014
20955SOL     OW67711   7.427   5.761   6.549
20955SOL    HW167712   7.466   5.676   6.513
20955SOL    HW267713   7.329   5.763   6.530
20956SOL     OW67714   5.849   5.912   6.306
20956SOL    HW167715   5.770   5.963   6.272
20956SOL    HW267716   5.840   5.897   6.404
20957SOL     OW67717   6.780   7.198   5.617
20957SOL    HW167718   6.786   7.105   5.654
20957SOL    HW267719   6.721   7.198   5.537
20958SOL     OW67720   6.408   6.588   6.958
20958SOL    HW167721   6.448   6.587   6.866
20958SOL    HW267722   6.418   6.680   6.998
20959SOL     OW67723   6.502   6.496   5.877
20959SOL    HW167724   6.565   6.534   5.809
20959SOL    HW267725   6.542   6.413   5.916
20960SOL     OW67726   7.090   7.193   5.630
20960SOL    HW167727   6.998   7.230   5.637
20960SOL    HW267728   7.128   7.213   5.540
20961SOL     OW67729   5.958   6.874   7.076
20961SOL    HW167730   5.945   6.967   7.042
20961SOL    HW267731   5.874   6.822   7.063
20962SOL     OW67732   7.200   6.878   6.875
20962SOL    HW167733   7.260   6.881   6.955
20962SOL    HW267734   7.125   6.942   6.888
20963SOL     OW67735   6.625   6.684   6.282
20963SOL    HW167736   6.555   6.637   6.336
20963SOL    HW267737   6.684   6.616   6.239
20964SOL     OW67738   6.600   5.822   6.557
20964SOL    HW167739   6.592   5.786   6.464
20964SOL    HW267740   6.598   5.746   6.622
20965SOL     OW67741   6.176   7.073   6.077
20965SOL    HW167742   6.218   7.015   6.007
20965SOL    HW267743   6.132   7.152   6.033
20966SOL     OW67744   7.295   5.971   6.967
20966SOL    HW167745   7.368   6.040   6.971
20966SOL    HW267746   7.323   5.896   6.908
20967SOL     OW67747   5.841   6.934   5.876
20967SOL    HW167748   5.745   6.935   5.849
20967SOL    HW267749   5.853   6.987   5.960
20968SOL     OW67750   5.691   6.599   7.312
20968SOL    HW167751   5.614   6.566   7.366
20968SOL    HW267752   5.776   6.569   7.354
20969SOL     OW67753   6.258   5.789   7.075
20969SOL    HW167754   6.348   5.773   7.035
20969SOL    HW267755   6.266   5.794   7.174
20970SOL     OW67756   5.661   5.931   5.619
20970SOL    HW167757   5.569   5.903   5.590
20970SOL    HW267758   5.692   6.008   5.563
20971SOL     OW67759   7.026   6.442   6.984
20971SOL    HW167760   6.969   6.494   6.921
20971SOL    HW267761   7.122   6.454   6.960
20972SOL     OW67762   5.658   5.752   5.904
20972SOL    HW167763   5.641   5.835   5.850
20972SOL    HW267764   5.748   5.715   5.882
20973SOL     OW67765   6.769   6.921   5.705
20973SOL    HW167766   6.670   6.910   5.707
20973SOL    HW267767   6.803   6.936   5.798
20974SOL     OW67768   6.199   6.428   7.017
20974SOL    HW167769   6.255   6.509   7.000
20974SOL    HW267770   6.258   6.348   7.020
20975SOL     OW67771   7.079   7.353   6.545
20975SOL    HW167772   7.112   7.417   6.476
20975SOL    HW267773   7.145   7.347   6.620
20976SOL     OW67774   6.302   6.151   7.294
20976SOL    HW167775   6.321   6.216   7.368
20976SOL    HW267776   6.362   6.071   7.303
20977SOL     OW67777   7.036   6.806   7.219
20977SOL    HW167778   7.027   6.796   7.318
20977SOL    HW267779   7.132   6.799   7.193
20978SOL     OW67780   5.976   7.327   7.146
20978SOL    HW167781   5.885   7.368   7.144
20978SOL    HW267782   5.969   7.233   7.178
20979SOL     OW67783   7.260   6.469   6.840
20979SOL    HW167784   7.233   6.380   6.803
20979SOL    HW267785   7.261   6.537   6.767
20980SOL     OW67786   6.811   5.911   6.035
20980SOL    HW167787   6.876   5.837   6.024
20980SOL    HW267788   6.831   5.961   6.119
20981SOL     OW67789   6.180   6.331   6.238
20981SOL    HW167790   6.230   6.416   6.219
20981SOL    HW267791   6.092   6.333   6.190
20982SOL     OW67792   7.363   5.928   7.228
20982SOL    HW167793   7.346   5.959   7.134
20982SOL    HW267794   7.279   5.891   7.266
20983SOL     OW67795   7.316   6.520   7.103
20983SOL    HW167796   7.354   6.611   7.118
20983SOL    HW267797   7.308   6.503   7.004
20984SOL     OW67798   6.445   6.960   5.602
20984SOL    HW167799   6.399   6.975   5.690
20984SOL    HW267800   6.489   7.045   5.572
20985SOL     OW67801   6.247   7.376   6.539
20985SOL    HW167802   6.201   7.464   6.526
20985SOL    HW267803   6.346   7.388   6.532
20986SOL     OW67804   6.445   6.542   6.447
20986SOL    HW167805   6.499   6.473   6.495
20986SOL    HW267806   6.413   6.611   6.513
20987SOL     OW67807   6.669   6.570   5.673
20987SOL    HW167808   6.646   6.623   5.591
20987SOL    HW267809   6.750   6.514   5.654
20988SOL     OW67810   7.447   7.155   6.437
20988SOL    HW167811   7.376   7.143   6.367
20988SOL    HW267812   7.448   7.076   6.497
20989SOL     OW67813   5.807   6.900   7.430
20989SOL    HW167814   5.742   6.827   7.409
20989SOL    HW267815   5.811   6.914   7.528
20990SOL     OW67816   5.665   6.826   6.239
20990SOL    HW167817   5.664   6.779   6.327
20990SOL    HW267818   5.747   6.798   6.188
20991SOL     OW67819   6.258   6.977   7.210
20991SOL    HW167820   6.180   6.927   7.248
20991SOL    HW267821   6.255   7.072   7.241
20992SOL     OW67822   7.410   5.778   6.813
20992SOL    HW167823   7.406   5.688   6.857
20992SOL    HW267824   7.413   5.767   6.714
20993SOL     OW67825   6.014   6.010   6.106
20993SOL    HW167826   6.044   5.938   6.044
20993SOL    HW267827   5.975   5.970   6.189
20994SOL     OW67828   7.291   7.073   6.690
20994SOL    HW167829   7.198   7.048   6.663
20994SOL    HW267830   7.317   7.023   6.772
20995SOL     OW67831   5.903   6.133   6.866
20995SOL    HW167832   5.941   6.074   6.938
20995SOL    HW267833   5.943   6.107   6.778
20996SOL     OW67834   6.398   7.172   6.273
20996SOL    HW167835   6.430   7.182   6.179
20996SOL    HW267836   6.319   7.110   6.275
20997SOL     OW67837   6.587   5.620   6.740
20997SOL    HW167838   6.524   5.548   6.709
20997SOL    HW267839   6.680   5.584   6.740
20998SOL     OW67840   6.356   6.916   5.887
20998SOL    HW167841   6.310   6.829   5.904
20998SOL    HW267842   6.447   6.913   5.928
20999SOL     OW67843   6.204   7.153   6.870
20999SOL    HW167844   6.199   7.235   6.927
20999SOL    HW267845   6.293   7.150   6.825
21000SOL     OW67846   6.938   5.638   5.754
21000SOL    HW167847   6.973   5.597   5.670
21000SOL    HW267848   6.848   5.600   5.774
21001SOL     OW67849   6.886   6.039   6.277
21001SOL    HW167850   6.827   6.119   6.281
21001SOL    HW267851   6.901   6.004   6.370
21002SOL     OW67852   7.179   5.807   6.468
21002SOL    HW167853   7.095   5.806   6.522
21002SOL    HW267854   7.181   5.890   6.412
21003SOL     OW67855   5.625   6.663   5.886
21003SOL    HW167856   5.724   6.652   5.877
21003SOL    HW267857   5.585   6.577   5.918
21004SOL     OW67858   6.461   7.232   5.923
21004SOL    HW167859   6.384   7.197   5.869
21004SOL    HW267860   6.429   7.303   5.985
21005SOL     OW67861   5.816   6.214   7.561
21005SOL    HW167862   5.723   6.212   7.598
21005SOL    HW267863   5.817   6.175   7.469
21006SOL     OW67864   5.811   5.861   8.444
21006SOL    HW167865   5.846   5.844   8.536
21006SOL    HW267866   5.723   5.816   8.432
21007SOL     OW67867   5.605   5.954   8.095
21007SOL    HW167868   5.523   5.997   8.134
21007SOL    HW267869   5.577   5.881   8.032
21008SOL     OW67870   6.155   6.861   8.613
21008SOL    HW167871   6.062   6.854   8.576
21008SOL    HW267872   6.166   6.950   8.657
21009SOL     OW67873   7.141   7.097   8.151
21009SOL    HW167874   7.084   7.081   8.232
21009SOL    HW267875   7.082   7.107   8.071
21010SOL     OW67876   6.721   6.289   8.165
21010SOL    HW167877   6.778   6.367   8.140
21010SOL    HW267878   6.661   6.315   8.241
21011SOL     OW67879   7.341   6.193   7.679
21011SOL    HW167880   7.329   6.180   7.580
21011SOL    HW267881   7.311   6.112   7.728
21012SOL     OW67882   6.354   6.730   8.471
21012SOL    HW167883   6.276   6.747   8.531
21012SOL    HW267884   6.388   6.817   8.435
21013SOL     OW67885   6.436   6.384   9.271
21013SOL    HW167886   6.432   6.460   9.336
21013SOL    HW267887   6.458   6.420   9.180
21014SOL     OW67888   6.271   6.598   8.113
21014SOL    HW167889   6.340   6.582   8.183
21014SOL    HW267890   6.198   6.655   8.151
21015SOL     OW67891   6.272   6.747   9.251
21015SOL    HW167892   6.332   6.826   9.265
21015SOL    HW267893   6.186   6.778   9.210
21016SOL     OW67894   5.921   7.021   8.509
21016SOL    HW167895   5.843   6.990   8.456
21016SOL    HW267896   5.979   7.079   8.452
21017SOL     OW67897   7.046   7.091   8.787
21017SOL    HW167898   7.070   7.185   8.813
21017SOL    HW267899   7.030   7.037   8.869
21018SOL     OW67900   6.024   5.978   8.947
21018SOL    HW167901   6.106   5.922   8.956
21018SOL    HW267902   5.943   5.920   8.951
21019SOL     OW67903   7.189   6.033   8.185
21019SOL    HW167904   7.115   6.079   8.135
21019SOL    HW267905   7.240   6.101   8.238
21020SOL     OW67906   5.817   7.299   7.931
21020SOL    HW167907   5.851   7.376   7.985
21020SOL    HW267908   5.861   7.299   7.841
21021SOL     OW67909   6.713   6.927   9.138
21021SOL    HW167910   6.760   6.927   9.226
21021SOL    HW267911   6.665   6.840   9.127
21022SOL     OW67912   5.816   7.020   7.986
21022SOL    HW167913   5.790   7.116   7.986
21022SOL    HW267914   5.745   6.966   8.031
21023SOL     OW67915   5.826   6.677   8.334
21023SOL    HW167916   5.840   6.593   8.386
21023SOL    HW267917   5.771   6.741   8.389
21024SOL     OW67918   6.206   7.372   8.887
21024SOL    HW167919   6.114   7.355   8.922
21024SOL    HW267920   6.234   7.464   8.913
21025SOL     OW67921   6.192   6.550   7.571
21025SOL    HW167922   6.199   6.634   7.517
21025SOL    HW267923   6.238   6.563   7.659
21026SOL     OW67924   7.180   5.700   8.928
21026SOL    HW167925   7.162   5.767   8.856
21026SOL    HW267926   7.177   5.746   9.017
21027SOL     OW67927   7.428   7.353   7.807
21027SOL    HW167928   7.482   7.324   7.887
21027SOL    HW267929   7.458   7.443   7.778
21028SOL     OW67930   5.613   7.182   7.565
21028SOL    HW167931   5.594   7.086   7.586
21028SOL    HW267932   5.580   7.240   7.640
21029SOL     OW67933   7.275   6.508   8.060
21029SOL    HW167934   7.370   6.479   8.068
21029SOL    HW267935   7.267   6.573   7.985
21030SOL     OW67936   7.227   6.694   7.880
21030SOL    HW167937   7.313   6.696   7.828
21030SOL    HW267938   7.241   6.741   7.968
21031SOL     OW67939   5.699   6.323   9.045
21031SOL    HW167940   5.787   6.310   9.090
21031SOL    HW267941   5.686   6.420   9.023
21032SOL     OW67942   6.199   6.951   8.174
21032SOL    HW167943   6.150   6.864   8.183
21032SOL    HW267944   6.176   6.994   8.087
21033SOL     OW67945   6.879   6.814   8.871
21033SOL    HW167946   6.916   6.741   8.813
21033SOL    HW267947   6.931   6.819   8.956
21034SOL     OW67948   6.395   5.590   7.950
21034SOL    HW167949   6.435   5.681   7.941
21034SOL    HW267950   6.295   5.598   7.956
21035SOL     OW67951   5.783   6.562   8.712
21035SOL    HW167952   5.872   6.517   8.698
21035SOL    HW267953   5.710   6.497   8.693
21036SOL     OW67954   7.111   6.585   7.638
21036SOL    HW167955   7.048   6.509   7.651
21036SOL    HW267956   7.159   6.603   7.724
21037SOL     OW67957   6.773   7.378   9.064
21037SOL    HW167958   6.797   7.438   8.988
21037SOL    HW267959   6.780   7.283   9.034
21038SOL     OW67960   5.903   5.837   9.249
21038SOL    HW167961   5.974   5.908   9.255
21038SOL    HW267962   5.815   5.876   9.277
21039SOL     OW67963   7.052   7.003   8.401
21039SOL    HW167964   6.993   7.009   8.481
21039SOL    HW267965   7.037   6.915   8.355
21040SOL     OW67966   7.253   7.300   8.020
21040SOL    HW167967   7.212   7.277   7.932
21040SOL    HW267968   7.235   7.226   8.085
21041SOL     OW67969   6.184   6.315   7.718
21041SOL    HW167970   6.208   6.384   7.650
21041SOL    HW267971   6.106   6.348   7.772
21042SOL     OW67972   6.867   5.931   8.392
21042SOL    HW167973   6.781   5.881   8.379
21042SOL    HW267974   6.929   5.877   8.448
21043SOL     OW67975   7.162   7.248   7.755
21043SOL    HW167976   7.251   7.294   7.758
21043SOL    HW267977   7.141   7.224   7.660
21044SOL     OW67978   6.393   6.191   8.913
21044SOL    HW167979   6.346   6.188   9.002
21044SOL    HW267980   6.342   6.136   8.847
21045SOL     OW67981   6.980   6.055   9.122
21045SOL    HW167982   6.960   6.098   9.210
21045SOL    HW267983   7.058   5.993   9.131
21046SOL     OW67984   6.559   6.476   9.020
21046SOL    HW167985   6.605   6.392   8.991
21046SOL    HW267986   6.503   6.510   8.945
21047SOL     OW67987   6.577   5.996   8.690
21047SOL    HW167988   6.500   6.030   8.744
21047SOL    HW267989   6.543   5.945   8.611
21048SOL     OW67990   5.662   6.397   8.237
21048SOL    HW167991   5.761   6.385   8.246
21048SOL    HW267992   5.638   6.492   8.258
21049SOL     OW67993   6.451   5.934   7.643
21049SOL    HW167994   6.510   5.997   7.594
21049SOL    HW267995   6.470   5.840   7.614
21050SOL     OW67996   7.305   6.171   9.279
21050SOL    HW167997   7.279   6.260   9.243
21050SOL    HW267998   7.303   6.103   9.206
21051SOL     OW67999   6.948   6.730   7.993
21051SOL    HW168000   7.031   6.701   7.945
21051SOL    HW268001   6.899   6.797   7.937
21052SOL     OW68002   6.136   5.782   8.333
21052SOL    HW168003   6.131   5.777   8.433
21052SOL    HW268004   6.138   5.878   8.304
21053SOL     OW68005   6.594   7.042   7.925
21053SOL    HW168006   6.548   7.114   7.873
21053SOL    HW268007   6.590   7.062   8.023
21054SOL     OW68008   5.937   7.387   8.301
21054SOL    HW168009   5.987   7.301   8.307
21054SOL    HW268010   6.002   7.464   8.298
21055SOL     OW68011   7.381   6.652   8.321
21055SOL    HW168012   7.319   6.637   8.245
21055SOL    HW268013   7.329   6.663   8.406
21056SOL     OW68014   6.813   7.136   8.954
21056SOL    HW168015   6.819   7.059   9.018
21056SOL    HW268016   6.761   7.110   8.874
21057SOL     OW68017   5.907   6.529   7.690
21057SOL    HW168018   5.989   6.568   7.648
21057SOL    HW268019   5.880   6.447   7.641
21058SOL     OW68020   7.044   6.321   8.176
21058SOL    HW168021   7.039   6.256   8.251
21058SOL    HW268022   7.124   6.380   8.189
21059SOL     OW68023   6.047   6.852   9.175
21059SOL    HW168024   5.997   6.853   9.089
21059SOL    HW268025   5.984   6.834   9.251
21060SOL     OW68026   6.697   7.362   7.685
21060SOL    HW168027   6.637   7.300   7.735
21060SOL    HW268028   6.728   7.318   7.600
21061SOL     OW68029   5.788   5.871   8.946
21061SOL    HW168030   5.708   5.931   8.933
21061SOL    HW268031   5.778   5.822   9.032
21062SOL     OW68032   7.218   6.963   7.529
21062SOL    HW168033   7.186   7.057   7.519
21062SOL    HW268034   7.142   6.900   7.517
21063SOL     OW68035   6.050   7.329   7.771
21063SOL    HW168036   6.083   7.368   7.857
21063SOL    HW268037   6.126   7.322   7.706
21064SOL     OW68038   6.986   5.693   7.874
21064SOL    HW168039   6.962   5.656   7.784
21064SOL    HW268040   7.085   5.709   7.878
21065SOL     OW68041   5.835   7.371   8.689
21065SOL    HW168042   5.892   7.306   8.739
21065SOL    HW268043   5.819   7.338   8.596
21066SOL     OW68044   6.526   7.284   8.352
21066SOL    HW168045   6.606   7.227   8.373
21066SOL    HW268046   6.477   7.244   8.275
21067SOL     OW68047   5.968   6.286   7.928
21067SOL    HW168048   6.013   6.196   7.925
21067SOL    HW268049   5.874   6.275   7.961
21068SOL     OW68050   7.133   5.808   9.177
21068SOL    HW168051   7.128   5.845   9.269
21068SOL    HW268052   7.061   5.739   9.165
21069SOL     OW68053   6.200   5.708   7.565
21069SOL    HW168054   6.298   5.686   7.572
21069SOL    HW268055   6.169   5.691   7.472
21070SOL     OW68056   6.474   7.100   8.643
21070SOL    HW168057   6.451   7.075   8.549
21070SOL    HW268058   6.535   7.031   8.682
21071SOL     OW68059   6.937   6.176   8.881
21071SOL    HW168060   6.965   6.133   8.966
21071SOL    HW268061   6.962   6.272   8.882
21072SOL     OW68062   6.389   6.988   8.372
21072SOL    HW168063   6.479   7.002   8.330
21072SOL    HW268064   6.318   6.990   8.301
21073SOL     OW68065   6.508   6.089   8.347
21073SOL    HW168066   6.483   6.080   8.251
21073SOL    HW268067   6.556   6.007   8.378
21074SOL     OW68068   6.125   5.650   7.960
21074SOL    HW168069   6.044   5.651   8.018
21074SOL    HW268070   6.128   5.733   7.905
21075SOL     OW68071   7.020   6.774   7.489
21075SOL    HW168072   7.052   6.698   7.546
21075SOL    HW268073   6.928   6.801   7.519
21076SOL     OW68074   5.883   5.621   7.619
21076SOL    HW168075   5.932   5.705   7.598
21076SOL    HW268076   5.945   5.556   7.664
21077SOL     OW68077   6.521   5.822   7.928
21077SOL    HW168078   6.473   5.863   7.850
21077SOL    HW268079   6.620   5.820   7.909
21078SOL     OW68080   6.662   6.269   8.912
21078SOL    HW168081   6.582   6.208   8.915
21078SOL    HW268082   6.743   6.216   8.888
21079SOL     OW68083   6.813   7.156   8.241
21079SOL    HW168084   6.834   7.230   8.176
21079SOL    HW268085   6.881   7.156   8.314
21080SOL     OW68086   6.045   6.738   8.189
21080SOL    HW168087   5.974   6.711   8.254
21080SOL    HW268088   6.019   6.710   8.096
21081SOL     OW68089   6.857   7.383   8.039
21081SOL    HW168090   6.901   7.447   7.975
21081SOL    HW268091   6.807   7.435   8.109
21082SOL     OW68092   6.618   6.135   7.464
21082SOL    HW168093   6.577   6.217   7.425
21082SOL    HW268094   6.682   6.161   7.537
21083SOL     OW68095   5.664   6.142   8.834
21083SOL    HW168096   5.756   6.141   8.793
21083SOL    HW268097   5.658   6.216   8.901
21084SOL     OW68098   6.147   5.808   8.595
21084SOL    HW168099   6.185   5.724   8.632
21084SOL    HW268100   6.059   5.827   8.639
21085SOL     OW68101   6.452   6.040   8.090
21085SOL    HW168102   6.420   6.112   8.028
21085SOL    HW268103   6.476   5.959   8.037
21086SOL     OW68104   6.603   5.625   8.201
21086SOL    HW168105   6.531   5.630   8.132
21086SOL    HW268106   6.579   5.556   8.270
21087SOL     OW68107   7.015   6.759   8.315
21087SOL    HW168108   6.960   6.675   8.308
21087SOL    HW268109   7.041   6.788   8.223
21088SOL     OW68110   7.052   6.176   8.440
21088SOL    HW168111   7.022   6.081   8.447
21088SOL    HW268112   7.125   6.192   8.506
21089SOL     OW68113   7.443   6.419   7.825
21089SOL    HW168114   7.485   6.355   7.889
21089SOL    HW268115   7.405   6.368   7.747
21090SOL     OW68116   6.074   6.971   7.622
21090SOL    HW168117   5.987   6.956   7.669
21090SOL    HW268118   6.057   6.997   7.527
21091SOL     OW68119   7.250   6.866   8.105
21091SOL    HW168120   7.349   6.874   8.119
21091SOL    HW268121   7.205   6.950   8.136
21092SOL     OW68122   6.976   6.161   7.526
21092SOL    HW168123   6.922   6.140   7.607
21092SOL    HW268124   7.067   6.120   7.535
21093SOL     OW68125   6.113   5.842   7.776
21093SOL    HW168126   6.140   5.783   7.701
21093SOL    HW268127   6.113   5.937   7.745
21094SOL     OW68128   7.340   6.809   9.036
21094SOL    HW168129   7.431   6.770   9.023
21094SOL    HW268130   7.348   6.905   9.060
21095SOL     OW68131   6.650   6.933   8.788
21095SOL    HW168132   6.570   6.910   8.843
21095SOL    HW268133   6.733   6.907   8.837
21096SOL     OW68134   7.178   7.215   9.073
21096SOL    HW168135   7.205   7.249   8.983
21096SOL    HW268136   7.257   7.177   9.119
21097SOL     OW68137   6.697   6.781   8.548
21097SOL    HW168138   6.657   6.825   8.629
21097SOL    HW268139   6.656   6.818   8.465
21098SOL     OW68140   7.224   6.685   8.527
21098SOL    HW168141   7.229   6.766   8.586
21098SOL    HW268142   7.138   6.687   8.476
21099SOL     OW68143   6.501   5.675   8.850
21099SOL    HW168144   6.526   5.655   8.755
21099SOL    HW268145   6.573   5.731   8.892
21100SOL     OW68146   6.566   6.702   9.167
21100SOL    HW168147   6.467   6.708   9.177
21100SOL    HW268148   6.589   6.622   9.111
21101SOL     OW68149   6.291   6.636   7.816
21101SOL    HW168150   6.277   6.643   7.915
21101SOL    HW268151   6.375   6.585   7.798
21102SOL     OW68152   5.996   6.399   8.699
21102SOL    HW168153   6.082   6.411   8.749
21102SOL    HW268154   5.954   6.312   8.726
21103SOL     OW68155   6.860   5.972   8.710
21103SOL    HW168156   6.881   6.046   8.774
21103SOL    HW268157   6.771   5.989   8.667
21104SOL     OW68158   5.650   7.150   8.779
21104SOL    HW168159   5.604   7.232   8.745
21104SOL    HW268160   5.748   7.169   8.788
21105SOL     OW68161   5.953   6.686   7.949
21105SOL    HW168162   5.946   6.769   7.893
21105SOL    HW268163   5.957   6.606   7.889
21106SOL     OW68164   6.152   6.123   8.313
21106SOL    HW168165   6.164   6.189   8.239
21106SOL    HW268166   6.198   6.157   8.396
21107SOL     OW68167   6.838   6.934   7.836
21107SOL    HW168168   6.888   7.011   7.876
21107SOL    HW268169   6.743   6.936   7.868
21108SOL     OW68170   6.858   7.031   8.590
21108SOL    HW168171   6.905   7.044   8.677
21108SOL    HW268172   6.792   6.957   8.599
21109SOL     OW68173   7.168   6.225   7.920
21109SOL    HW168174   7.137   6.286   7.993
21109SOL    HW268175   7.218   6.277   7.851
21110SOL     OW68176   5.940   7.096   8.777
21110SOL    HW168177   5.919   7.052   8.690
21110SOL    HW268178   6.037   7.122   8.780
21111SOL     OW68179   5.988   6.337   9.046
21111SOL    HW168180   6.056   6.392   8.999
21111SOL    HW268181   6.028   6.249   9.073
21112SOL     OW68182   6.090   5.636   9.188
21112SOL    HW168183   6.048   5.579   9.118
21112SOL    HW268184   6.024   5.705   9.220
21113SOL     OW68185   6.159   6.456   8.477
21113SOL    HW168186   6.203   6.545   8.468
21113SOL    HW268187   6.096   6.456   8.554
21114SOL     OW68188   6.946   6.448   8.493
21114SOL    HW168189   6.871   6.448   8.427
21114SOL    HW268190   6.983   6.356   8.502
21115SOL     OW68191   6.795   6.111   7.723
21115SOL    HW168192   6.808   6.027   7.777
21115SOL    HW268193   6.766   6.185   7.783
21116SOL     OW68194   5.893   5.799   8.679
21116SOL    HW168195   5.870   5.836   8.769
21116SOL    HW268196   5.863   5.704   8.673
21117SOL     OW68197   5.623   6.896   8.730
21117SOL    HW168198   5.676   6.847   8.798
21117SOL    HW268199   5.645   6.994   8.735
21118SOL     OW68200   6.318   6.220   8.512
21118SOL    HW168201   6.377   6.194   8.436
21118SOL    HW268202   6.290   6.316   8.501
21119SOL     OW68203   7.314   6.521   9.302
21119SOL    HW168204   7.268   6.514   9.213
21119SOL    HW268205   7.252   6.565   9.368
21120SOL     OW68206   5.893   5.649   8.066
21120SOL    HW168207   5.882   5.743   8.099
21120SOL    HW268208   5.888   5.586   8.143
21121SOL     OW68209   7.208   5.953   7.822
21121SOL    HW168210   7.210   5.877   7.886
21121SOL    HW268211   7.160   6.030   7.862
21122SOL     OW68212   6.609   6.352   8.414
21122SOL    HW168213   6.624   6.373   8.510
21122SOL    HW268214   6.579   6.257   8.405
21123SOL     OW68215   6.566   7.159   9.148
21123SOL    HW168216   6.546   7.203   9.060
21123SOL    HW268217   6.605   7.068   9.132
21124SOL     OW68218   7.445   7.104   9.053
21124SOL    HW168219   7.459   7.131   8.958
21124SOL    HW268220   7.528   7.126   9.106
21125SOL     OW68221   5.936   6.484   9.252
21125SOL    HW168222   6.012   6.528   9.300
21125SOL    HW268223   5.971   6.437   9.170
21126SOL     OW68224   7.126   5.860   7.573
21126SOL    HW168225   7.065   5.785   7.596
21126SOL    HW268226   7.148   5.912   7.656
21127SOL     OW68227   6.889   6.424   7.490
21127SOL    HW168228   6.923   6.331   7.505
21127SOL    HW268229   6.907   6.451   7.395
21128SOL     OW68230   6.654   6.919   8.297
21128SOL    HW168231   6.661   6.835   8.242
21128SOL    HW268232   6.716   6.988   8.261
21129SOL     OW68233   5.905   6.396   8.397
21129SOL    HW168234   5.998   6.432   8.402
21129SOL    HW268235   5.899   6.311   8.449
21130SOL     OW68236   5.925   6.095   8.454
21130SOL    HW168237   5.873   6.012   8.437
21130SOL    HW268238   6.002   6.100   8.390
21131SOL     OW68239   6.746   5.793   8.925
21131SOL    HW168240   6.746   5.857   9.002
21131SOL    HW268241   6.774   5.841   8.842
21132SOL     OW68242   5.594   6.912   7.648
21132SOL    HW168243   5.501   6.933   7.617
21132SOL    HW268244   5.604   6.813   7.661
21133SOL     OW68245   6.090   7.154   8.358
21133SOL    HW168246   6.156   7.228   8.367
21133SOL    HW268247   6.134   7.075   8.316
21134SOL     OW68248   6.588   6.382   8.686
21134SOL    HW168249   6.629   6.350   8.772
21134SOL    HW268250   6.492   6.355   8.683
21135SOL     OW68251   5.626   6.130   8.562
21135SOL    HW168252   5.711   6.097   8.521
21135SOL    HW268253   5.639   6.145   8.660
21136SOL     OW68254   5.775   6.106   9.170
21136SOL    HW168255   5.834   6.066   9.100
21136SOL    HW268256   5.717   6.177   9.129
21137SOL     OW68257   6.955   6.536   9.108
21137SOL    HW168258   6.994   6.625   9.128
21137SOL    HW268259   6.965   6.516   9.011
21138SOL     OW68260   6.401   6.158   7.773
21138SOL    HW168261   6.408   6.069   7.727
21138SOL    HW268262   6.307   6.192   7.765
21139SOL     OW68263   7.243   6.190   8.654
21139SOL    HW168264   7.205   6.121   8.716
21139SOL    HW268265   7.325   6.154   8.610
21140SOL     OW68266   5.838   7.150   9.192
21140SOL    HW168267   5.808   7.207   9.268
21140SOL    HW268268   5.831   7.053   9.218
21141SOL     OW68269   6.257   6.050   8.717
21141SOL    HW168270   6.223   5.961   8.687
21141SOL    HW268271   6.283   6.104   8.637
21142SOL     OW68272   6.516   7.264   8.913
21142SOL    HW168273   6.492   7.246   8.818
21142SOL    HW268274   6.546   7.358   8.923
21143SOL     OW68275   6.059   6.086   7.639
21143SOL    HW168276   6.120   6.166   7.643
21143SOL    HW268277   5.964   6.117   7.646
21144SOL     OW68278   5.745   6.723   8.914
21144SOL    HW168279   5.767   6.662   8.990
21144SOL    HW268280   5.755   6.674   8.828
21145SOL     OW68281   6.933   6.645   8.682
21145SOL    HW168282   6.957   6.582   8.608
21145SOL    HW268283   6.843   6.685   8.664
21146SOL     OW68284   6.888   6.441   7.757
21146SOL    HW168285   6.802   6.410   7.799
21146SOL    HW268286   6.884   6.427   7.658
21147SOL     OW68287   7.345   7.333   8.602
21147SOL    HW168288   7.406   7.363   8.529
21147SOL    HW268289   7.307   7.244   8.580
21148SOL     OW68290   6.838   7.317   8.576
21148SOL    HW168291   6.922   7.322   8.522
21148SOL    HW268292   6.815   7.221   8.594
21149SOL     OW68293   5.669   6.844   8.470
21149SOL    HW168294   5.664   6.843   8.570
21149SOL    HW268295   5.586   6.803   8.432
21150SOL     OW68296   6.274   7.248   9.164
21150SOL    HW168297   6.218   7.329   9.173
21150SOL    HW268298   6.326   7.252   9.078
21151SOL     OW68299   7.312   5.721   7.971
21151SOL    HW168300   7.385   5.704   7.904
21151SOL    HW268301   7.281   5.634   8.009
21152SOL     OW68302   6.974   7.159   7.925
21152SOL    HW168303   7.041   7.171   7.851
21152SOL    HW268304   6.934   7.248   7.948
21153SOL     OW68305   6.866   6.513   8.120
21153SOL    HW168306   6.926   6.432   8.122
21153SOL    HW268307   6.906   6.582   8.060
21154SOL     OW68308   6.416   6.859   8.870
21154SOL    HW168309   6.411   6.892   8.965
21154SOL    HW268310   6.330   6.878   8.824
21155SOL     OW68311   6.258   7.202   7.602
21155SOL    HW168312   6.267   7.212   7.503
21155SOL    HW268313   6.218   7.113   7.623
21156SOL     OW68314   7.236   7.306   8.842
21156SOL    HW168315   7.289   7.316   8.758
21156SOL    HW268316   7.209   7.396   8.876
21157SOL     OW68317   7.427   5.761   8.411
21157SOL    HW168318   7.466   5.676   8.375
21157SOL    HW268319   7.329   5.763   8.392
21158SOL     OW68320   5.849   5.912   8.168
21158SOL    HW168321   5.770   5.963   8.134
21158SOL    HW268322   5.840   5.897   8.266
21159SOL     OW68323   6.780   7.198   7.479
21159SOL    HW168324   6.786   7.105   7.516
21159SOL    HW268325   6.721   7.198   7.399
21160SOL     OW68326   6.408   6.588   8.820
21160SOL    HW168327   6.448   6.587   8.728
21160SOL    HW268328   6.418   6.680   8.860
21161SOL     OW68329   6.502   6.496   7.739
21161SOL    HW168330   6.565   6.534   7.671
21161SOL    HW268331   6.542   6.413   7.778
21162SOL     OW68332   7.090   7.193   7.492
21162SOL    HW168333   6.998   7.230   7.499
21162SOL    HW268334   7.128   7.213   7.402
21163SOL     OW68335   5.958   6.874   8.938
21163SOL    HW168336   5.945   6.967   8.904
21163SOL    HW268337   5.874   6.822   8.925
21164SOL     OW68338   7.200   6.878   8.737
21164SOL    HW168339   7.260   6.881   8.817
21164SOL    HW268340   7.125   6.942   8.750
21165SOL     OW68341   6.625   6.684   8.144
21165SOL    HW168342   6.555   6.637   8.198
21165SOL    HW268343   6.684   6.616   8.101
21166SOL     OW68344   6.600   5.822   8.419
21166SOL    HW168345   6.592   5.786   8.326
21166SOL    HW268346   6.598   5.746   8.484
21167SOL     OW68347   7.295   5.971   8.829
21167SOL    HW168348   7.368   6.040   8.833
21167SOL    HW268349   7.323   5.896   8.770
21168SOL     OW68350   5.841   6.934   7.738
21168SOL    HW168351   5.745   6.935   7.711
21168SOL    HW268352   5.853   6.987   7.822
21169SOL     OW68353   5.691   6.599   9.174
21169SOL    HW168354   5.614   6.566   9.228
21169SOL    HW268355   5.776   6.569   9.216
21170SOL     OW68356   6.258   5.789   8.937
21170SOL    HW168357   6.348   5.773   8.897
21170SOL    HW268358   6.266   5.794   9.036
21171SOL     OW68359   7.026   6.442   8.846
21171SOL    HW168360   6.969   6.494   8.783
21171SOL    HW268361   7.122   6.454   8.822
21172SOL     OW68362   5.658   5.752   7.766
21172SOL    HW168363   5.641   5.835   7.712
21172SOL    HW268364   5.748   5.715   7.744
21173SOL     OW68365   6.769   6.921   7.567
21173SOL    HW168366   6.670   6.910   7.569
21173SOL    HW268367   6.803   6.936   7.660
21174SOL     OW68368   6.199   6.428   8.879
21174SOL    HW168369   6.255   6.509   8.862
21174SOL    HW268370   6.258   6.348   8.882
21175SOL     OW68371   6.302   6.151   9.156
21175SOL    HW168372   6.321   6.216   9.230
21175SOL    HW268373   6.362   6.071   9.165
21176SOL     OW68374   7.036   6.806   9.081
21176SOL    HW168375   7.027   6.796   9.180
21176SOL    HW268376   7.132   6.799   9.055
21177SOL     OW68377   5.976   7.327   9.008
21177SOL    HW168378   5.885   7.368   9.006
21177SOL    HW268379   5.969   7.233   9.040
21178SOL     OW68380   7.260   6.469   8.702
21178SOL    HW168381   7.233   6.380   8.665
21178SOL    HW268382   7.261   6.537   8.629
21179SOL     OW68383   6.811   5.911   7.897
21179SOL    HW168384   6.876   5.837   7.886
21179SOL    HW268385   6.831   5.961   7.981
21180SOL     OW68386   6.180   6.331   8.100
21180SOL    HW168387   6.230   6.416   8.081
21180SOL    HW268388   6.092   6.333   8.052
21181SOL     OW68389   7.363   5.928   9.090
21181SOL    HW168390   7.346   5.959   8.996
21181SOL    HW268391   7.279   5.891   9.128
21182SOL     OW68392   7.316   6.520   8.965
21182SOL    HW168393   7.354   6.611   8.980
21182SOL    HW268394   7.308   6.503   8.866
21183SOL     OW68395   6.445   6.960   7.464
21183SOL    HW168396   6.399   6.975   7.552
21183SOL    HW268397   6.489   7.045   7.434
21184SOL     OW68398   6.247   7.376   8.401
21184SOL    HW168399   6.201   7.464   8.388
21184SOL    HW268400   6.346   7.388   8.394
21185SOL     OW68401   6.445   6.542   8.309
21185SOL    HW168402   6.499   6.473   8.357
21185SOL    HW268403   6.413   6.611   8.375
21186SOL     OW68404   6.669   6.570   7.535
21186SOL    HW168405   6.646   6.623   7.453
21186SOL    HW268406   6.750   6.514   7.516
21187SOL     OW68407   7.447   7.155   8.299
21187SOL    HW168408   7.376   7.143   8.229
21187SOL    HW268409   7.448   7.076   8.359
21188SOL     OW68410   5.807   6.900   9.292
21188SOL    HW168411   5.742   6.827   9.271
21188SOL    HW268412   5.811   6.914   9.390
21189SOL     OW68413   5.665   6.826   8.101
21189SOL    HW168414   5.664   6.779   8.189
21189SOL    HW268415   5.747   6.798   8.050
21190SOL     OW68416   6.258   6.977   9.072
21190SOL    HW168417   6.180   6.927   9.110
21190SOL    HW268418   6.255   7.072   9.103
21191SOL     OW68419   7.410   5.778   8.675
21191SOL    HW168420   7.406   5.688   8.719
21191SOL    HW268421   7.413   5.767   8.576
21192SOL     OW68422   6.014   6.010   7.968
21192SOL    HW168423   6.044   5.938   7.906
21192SOL    HW268424   5.975   5.970   8.051
21193SOL     OW68425   7.291   7.073   8.552
21193SOL    HW168426   7.198   7.048   8.525
21193SOL    HW268427   7.317   7.023   8.634
21194SOL     OW68428   5.903   6.133   8.728
21194SOL    HW168429   5.941   6.074   8.800
21194SOL    HW268430   5.943   6.107   8.640
21195SOL     OW68431   6.398   7.172   8.135
21195SOL    HW168432   6.430   7.182   8.041
21195SOL    HW268433   6.319   7.110   8.137
21196SOL     OW68434   7.010   5.800   8.560
21196SOL    HW168435   7.062   5.735   8.615
21196SOL    HW268436   6.961   5.863   8.621
21197SOL     OW68437   6.587   5.620   8.602
21197SOL    HW168438   6.524   5.548   8.571
21197SOL    HW268439   6.680   5.584   8.602
21198SOL     OW68440   6.356   6.916   7.749
21198SOL    HW168441   6.310   6.829   7.766
21198SOL    HW268442   6.447   6.913   7.790
21199SOL     OW68443   6.204   7.153   8.732
21199SOL    HW168444   6.199   7.235   8.789
21199SOL    HW268445   6.293   7.150   8.687
21200SOL     OW68446   6.938   5.638   7.616
21200SOL    HW168447   6.973   5.597   7.532
21200SOL    HW268448   6.848   5.600   7.636
21201SOL     OW68449   6.886   6.039   8.139
21201SOL    HW168450   6.827   6.119   8.143
21201SOL    HW268451   6.901   6.004   8.232
21202SOL     OW68452   7.179   5.807   8.330
21202SOL    HW168453   7.095   5.806   8.384
21202SOL    HW268454   7.181   5.890   8.274
21203SOL     OW68455   5.625   6.663   7.748
21203SOL    HW168456   5.724   6.652   7.739
21203SOL    HW268457   5.585   6.577   7.780
21204SOL     OW68458   6.461   7.232   7.785
21204SOL    HW168459   6.384   7.197   7.731
21204SOL    HW268460   6.429   7.303   7.847
21205SOL     OW68461   5.816   6.214   9.423
21205SOL    HW168462   5.723   6.212   9.460
21205SOL    HW268463   5.817   6.175   9.331
21206SOL     OW68464   7.341   6.193   9.541
21206SOL    HW168465   7.329   6.180   9.442
21206SOL    HW268466   7.311   6.112   9.590
21207SOL     OW68467   5.816   7.020   9.848
21207SOL    HW168468   5.790   7.116   9.848
21207SOL    HW268469   5.745   6.966   9.893
21208SOL     OW68470   6.192   6.550   9.433
21208SOL    HW168471   6.199   6.634   9.379
21208SOL    HW268472   6.238   6.563   9.521
21209SOL     OW68473   5.708   6.229   9.873
21209SOL    HW168474   5.663   6.141   9.890
21209SOL    HW268475   5.707   6.283   9.957
21210SOL     OW68476   7.428   7.353   9.669
21210SOL    HW168477   7.482   7.324   9.749
21210SOL    HW268478   7.458   7.443   9.640
21211SOL     OW68479   7.275   6.508   9.922
21211SOL    HW168480   7.370   6.479   9.930
21211SOL    HW268481   7.267   6.573   9.847
21212SOL     OW68482   7.227   6.694   9.742
21212SOL    HW168483   7.313   6.696   9.690
21212SOL    HW268484   7.241   6.741   9.830
21213SOL     OW68485   6.199   6.951  10.036
21213SOL    HW168486   6.150   6.864  10.045
21213SOL    HW268487   6.176   6.994   9.949
21214SOL     OW68488   6.395   5.590   9.812
21214SOL    HW168489   6.435   5.681   9.803
21214SOL    HW268490   6.295   5.598   9.818
21215SOL     OW68491   7.111   6.585   9.500
21215SOL    HW168492   7.048   6.509   9.513
21215SOL    HW268493   7.159   6.603   9.586
21216SOL     OW68494   6.184   6.315   9.580
21216SOL    HW168495   6.208   6.384   9.512
21216SOL    HW268496   6.106   6.348   9.634
21217SOL     OW68497   7.162   7.248   9.617
21217SOL    HW168498   7.251   7.294   9.620
21217SOL    HW268499   7.141   7.224   9.522
21218SOL     OW68500   6.627   6.287   9.739
21218SOL    HW168501   6.653   6.283   9.835
21218SOL    HW268502   6.542   6.236   9.725
21219SOL     OW68503   5.662   6.397  10.099
21219SOL    HW168504   5.761   6.385  10.108
21219SOL    HW268505   5.638   6.492  10.120
21220SOL     OW68506   6.948   6.730   9.855
21220SOL    HW168507   7.031   6.701   9.807
21220SOL    HW268508   6.899   6.797   9.799
21221SOL     OW68509   6.594   7.042   9.787
21221SOL    HW168510   6.548   7.114   9.735
21221SOL    HW268511   6.590   7.062   9.885
21222SOL     OW68512   5.937   7.387  10.163
21222SOL    HW168513   5.987   7.301  10.169
21222SOL    HW268514   6.002   7.464  10.160
21223SOL     OW68515   5.907   6.529   9.552
21223SOL    HW168516   5.989   6.568   9.510
21223SOL    HW268517   5.880   6.447   9.503
21224SOL     OW68518   6.697   7.362   9.547
21224SOL    HW168519   6.637   7.300   9.597
21224SOL    HW268520   6.728   7.318   9.462
21225SOL     OW68521   7.218   6.963   9.391
21225SOL    HW168522   7.186   7.057   9.381
21225SOL    HW268523   7.142   6.900   9.379
21226SOL     OW68524   6.986   5.693   9.736
21226SOL    HW168525   6.962   5.656   9.646
21226SOL    HW268526   7.085   5.709   9.740
21227SOL     OW68527   5.968   6.286   9.790
21227SOL    HW168528   6.013   6.196   9.787
21227SOL    HW268529   5.874   6.275   9.823
21228SOL     OW68530   6.200   5.708   9.427
21228SOL    HW168531   6.298   5.686   9.434
21228SOL    HW268532   6.169   5.691   9.334
21229SOL     OW68533   6.125   5.650   9.822
21229SOL    HW168534   6.044   5.651   9.880
21229SOL    HW268535   6.128   5.733   9.767
21230SOL     OW68536   7.020   6.774   9.351
21230SOL    HW168537   7.052   6.698   9.408
21230SOL    HW268538   6.928   6.801   9.381
21231SOL     OW68539   6.521   5.822   9.790
21231SOL    HW168540   6.473   5.863   9.712
21231SOL    HW268541   6.620   5.820   9.771
21232SOL     OW68542   6.045   6.738  10.051
21232SOL    HW168543   5.974   6.711  10.116
21232SOL    HW268544   6.019   6.710   9.958
21233SOL     OW68545   6.857   7.383   9.901
21233SOL    HW168546   6.901   7.447   9.837
21233SOL    HW268547   6.807   7.435   9.971
21234SOL     OW68548   6.618   6.135   9.326
21234SOL    HW168549   6.577   6.217   9.287
21234SOL    HW268550   6.682   6.161   9.399
21235SOL     OW68551   6.452   6.040   9.952
21235SOL    HW168552   6.420   6.112   9.890
21235SOL    HW268553   6.476   5.959   9.899
21236SOL     OW68554   7.443   6.419   9.687
21236SOL    HW168555   7.485   6.355   9.751
21236SOL    HW268556   7.405   6.368   9.609
21237SOL     OW68557   6.074   6.971   9.484
21237SOL    HW168558   5.987   6.956   9.531
21237SOL    HW268559   6.057   6.997   9.389
21238SOL     OW68560   6.976   6.161   9.388
21238SOL    HW168561   6.922   6.140   9.469
21238SOL    HW268562   7.067   6.120   9.397
21239SOL     OW68563   6.113   5.842   9.638
21239SOL    HW168564   6.140   5.783   9.563
21239SOL    HW268565   6.113   5.937   9.607
21240SOL     OW68566   6.291   6.636   9.678
21240SOL    HW168567   6.277   6.643   9.777
21240SOL    HW268568   6.375   6.585   9.660
21241SOL     OW68569   5.953   6.686   9.811
21241SOL    HW168570   5.946   6.769   9.755
21241SOL    HW268571   5.957   6.606   9.751
21242SOL     OW68572   6.838   6.934   9.698
21242SOL    HW168573   6.888   7.011   9.738
21242SOL    HW268574   6.743   6.936   9.730
21243SOL     OW68575   7.168   6.225   9.782
21243SOL    HW168576   7.137   6.286   9.855
21243SOL    HW268577   7.218   6.277   9.713
21244SOL     OW68578   6.795   6.111   9.585
21244SOL    HW168579   6.808   6.027   9.639
21244SOL    HW268580   6.766   6.185   9.645
21245SOL     OW68581   5.893   5.649   9.928
21245SOL    HW168582   5.882   5.743   9.961
21245SOL    HW268583   5.888   5.586  10.005
21246SOL     OW68584   7.208   5.953   9.684
21246SOL    HW168585   7.210   5.877   9.748
21246SOL    HW268586   7.160   6.030   9.724
21247SOL     OW68587   7.126   5.860   9.435
21247SOL    HW168588   7.065   5.785   9.458
21247SOL    HW268589   7.148   5.912   9.518
21248SOL     OW68590   6.889   6.424   9.352
21248SOL    HW168591   6.923   6.331   9.367
21248SOL    HW268592   6.907   6.451   9.257
21249SOL     OW68593   5.594   6.912   9.510
21249SOL    HW168594   5.501   6.933   9.479
21249SOL    HW268595   5.604   6.813   9.523
21250SOL     OW68596   6.401   6.158   9.635
21250SOL    HW168597   6.408   6.069   9.589
21250SOL    HW268598   6.307   6.192   9.627
21251SOL     OW68599   6.059   6.086   9.501
21251SOL    HW168600   6.120   6.166   9.505
21251SOL    HW268601   5.964   6.117   9.508
21252SOL     OW68602   6.888   6.441   9.619
21252SOL    HW168603   6.802   6.410   9.661
21252SOL    HW268604   6.884   6.427   9.520
21253SOL     OW68605   7.312   5.721   9.833
21253SOL    HW168606   7.385   5.704   9.766
21253SOL    HW268607   7.281   5.634   9.871
21254SOL     OW68608   6.974   7.159   9.787
21254SOL    HW168609   7.041   7.171   9.713
21254SOL    HW268610   6.934   7.248   9.810
21255SOL     OW68611   6.258   7.202   9.464
21255SOL    HW168612   6.267   7.212   9.365
21255SOL    HW268613   6.218   7.113   9.485
21256SOL     OW68614   6.780   7.198   9.341
21256SOL    HW168615   6.786   7.105   9.378
21256SOL    HW268616   6.721   7.198   9.261
21257SOL     OW68617   6.502   6.496   9.601
21257SOL    HW168618   6.565   6.534   9.533
21257SOL    HW268619   6.542   6.413   9.640
21258SOL     OW68620   7.090   7.193   9.354
21258SOL    HW168621   6.998   7.230   9.361
21258SOL    HW268622   7.128   7.213   9.264
21259SOL     OW68623   6.176   7.073   9.801
21259SOL    HW168624   6.218   7.015   9.731
21259SOL    HW268625   6.132   7.152   9.757
21260SOL     OW68626   5.841   6.934   9.600
21260SOL    HW168627   5.745   6.935   9.573
21260SOL    HW268628   5.853   6.987   9.684
21261SOL     OW68629   6.769   6.921   9.429
21261SOL    HW168630   6.670   6.910   9.431
21261SOL    HW268631   6.803   6.936   9.522
21262SOL     OW68632   6.811   5.911   9.759
21262SOL    HW168633   6.876   5.837   9.748
21262SOL    HW268634   6.831   5.961   9.843
21263SOL     OW68635   6.180   6.331   9.962
21263SOL    HW168636   6.230   6.416   9.943
21263SOL    HW268637   6.092   6.333   9.914
21264SOL     OW68638   6.445   6.960   9.326
21264SOL    HW168639   6.399   6.975   9.414
21264SOL    HW268640   6.489   7.045   9.296
21265SOL     OW68641   6.669   6.570   9.397
21265SOL    HW168642   6.646   6.623   9.315
21265SOL    HW268643   6.750   6.514   9.378
21266SOL     OW68644   5.665   6.826   9.963
21266SOL    HW168645   5.664   6.779  10.051
21266SOL    HW268646   5.747   6.798   9.912
21267SOL     OW68647   6.014   6.010   9.830
21267SOL    HW168648   6.044   5.938   9.768
21267SOL    HW268649   5.975   5.970   9.913
21268SOL     OW68650   6.356   6.916   9.611
21268SOL    HW168651   6.310   6.829   9.628
21268SOL    HW268652   6.447   6.913   9.652
21269SOL     OW68653   6.938   5.638   9.478
21269SOL    HW168654   6.973   5.597   9.394
21269SOL    HW268655   6.848   5.600   9.498
21270SOL     OW68656   5.625   6.663   9.610
21270SOL    HW168657   5.724   6.652   9.601
21270SOL    HW268658   5.585   6.577   9.642
21271SOL     OW68659   6.461   7.232   9.647
21271SOL    HW168660   6.384   7.197   9.593
21271SOL    HW268661   6.429   7.303   9.709
21272SOL     OW68662   5.816   8.076   0.113
21272SOL    HW168663   5.723   8.074   0.150
21272SOL    HW268664   5.817   8.037   0.021
21273SOL     OW68665   5.811   7.723   0.996
21273SOL    HW168666   5.846   7.706   1.088
21273SOL    HW268667   5.723   7.678   0.984
21274SOL     OW68668   5.605   7.816   0.647
21274SOL    HW168669   5.523   7.859   0.686
21274SOL    HW268670   5.577   7.743   0.584
21275SOL     OW68671   6.155   8.723   1.165
21275SOL    HW168672   6.062   8.716   1.128
21275SOL    HW268673   6.166   8.812   1.209
21276SOL     OW68674   7.141   8.959   0.703
21276SOL    HW168675   7.084   8.943   0.784
21276SOL    HW268676   7.082   8.969   0.623
21277SOL     OW68677   6.721   8.151   0.717
21277SOL    HW168678   6.778   8.229   0.692
21277SOL    HW268679   6.661   8.177   0.793
21278SOL     OW68680   7.341   8.055   0.231
21278SOL    HW168681   7.329   8.042   0.132
21278SOL    HW268682   7.311   7.974   0.280
21279SOL     OW68683   6.436   8.246   1.823
21279SOL    HW168684   6.432   8.322   1.888
21279SOL    HW268685   6.458   8.282   1.732
21280SOL     OW68686   6.271   8.460   0.665
21280SOL    HW168687   6.340   8.444   0.735
21280SOL    HW268688   6.198   8.517   0.703
21281SOL     OW68689   6.272   8.609   1.803
21281SOL    HW168690   6.332   8.688   1.817
21281SOL    HW268691   6.186   8.640   1.762
21282SOL     OW68692   5.921   8.883   1.061
21282SOL    HW168693   5.843   8.852   1.008
21282SOL    HW268694   5.979   8.941   1.004
21283SOL     OW68695   7.046   8.953   1.339
21283SOL    HW168696   7.070   9.047   1.365
21283SOL    HW268697   7.030   8.899   1.421
21284SOL     OW68698   6.024   7.840   1.499
21284SOL    HW168699   6.106   7.784   1.508
21284SOL    HW268700   5.943   7.782   1.503
21285SOL     OW68701   5.817   9.161   0.483
21285SOL    HW168702   5.851   9.238   0.537
21285SOL    HW268703   5.861   9.161   0.393
21286SOL     OW68704   6.713   8.789   1.690
21286SOL    HW168705   6.760   8.789   1.778
21286SOL    HW268706   6.665   8.702   1.679
21287SOL     OW68707   5.816   8.882   0.538
21287SOL    HW168708   5.790   8.978   0.538
21287SOL    HW268709   5.745   8.828   0.583
21288SOL     OW68710   5.826   8.539   0.886
21288SOL    HW168711   5.840   8.455   0.938
21288SOL    HW268712   5.771   8.603   0.941
21289SOL     OW68713   6.206   9.234   1.439
21289SOL    HW168714   6.114   9.217   1.474
21289SOL    HW268715   6.234   9.326   1.465
21290SOL     OW68716   6.192   8.412   0.123
21290SOL    HW168717   6.199   8.496   0.069
21290SOL    HW268718   6.238   8.425   0.211
21291SOL     OW68719   7.180   7.562   1.480
21291SOL    HW168720   7.162   7.629   1.408
21291SOL    HW268721   7.177   7.608   1.569
21292SOL     OW68722   5.708   8.091   0.563
21292SOL    HW168723   5.663   8.003   0.580
21292SOL    HW268724   5.707   8.145   0.647
21293SOL     OW68725   7.428   9.215   0.359
21293SOL    HW168726   7.482   9.186   0.439
21293SOL    HW268727   7.458   9.305   0.330
21294SOL     OW68728   5.613   9.044   0.117
21294SOL    HW168729   5.594   8.948   0.138
21294SOL    HW268730   5.580   9.102   0.192
21295SOL     OW68731   7.275   8.370   0.612
21295SOL    HW168732   7.370   8.341   0.620
21295SOL    HW268733   7.267   8.435   0.537
21296SOL     OW68734   7.227   8.556   0.432
21296SOL    HW168735   7.313   8.558   0.380
21296SOL    HW268736   7.241   8.603   0.520
21297SOL     OW68737   5.699   8.185   1.597
21297SOL    HW168738   5.787   8.172   1.642
21297SOL    HW268739   5.686   8.282   1.575
21298SOL     OW68740   6.199   8.813   0.726
21298SOL    HW168741   6.150   8.726   0.735
21298SOL    HW268742   6.176   8.856   0.639
21299SOL     OW68743   6.879   8.676   1.423
21299SOL    HW168744   6.916   8.603   1.365
21299SOL    HW268745   6.931   8.681   1.508
21300SOL     OW68746   6.395   7.452   0.502
21300SOL    HW168747   6.435   7.543   0.493
21300SOL    HW268748   6.295   7.460   0.508
21301SOL     OW68749   5.783   8.424   1.264
21301SOL    HW168750   5.872   8.379   1.250
21301SOL    HW268751   5.710   8.359   1.245
21302SOL     OW68752   7.111   8.447   0.190
21302SOL    HW168753   7.048   8.371   0.203
21302SOL    HW268754   7.159   8.465   0.276
21303SOL     OW68755   6.773   9.240   1.616
21303SOL    HW168756   6.797   9.300   1.540
21303SOL    HW268757   6.780   9.145   1.586
21304SOL     OW68758   5.903   7.699   1.801
21304SOL    HW168759   5.974   7.770   1.807
21304SOL    HW268760   5.815   7.738   1.829
21305SOL     OW68761   7.052   8.865   0.953
21305SOL    HW168762   6.993   8.871   1.033
21305SOL    HW268763   7.037   8.777   0.907
21306SOL     OW68764   7.253   9.162   0.572
21306SOL    HW168765   7.212   9.139   0.484
21306SOL    HW268766   7.235   9.088   0.637
21307SOL     OW68767   6.184   8.177   0.270
21307SOL    HW168768   6.208   8.246   0.202
21307SOL    HW268769   6.106   8.210   0.324
21308SOL     OW68770   6.867   7.793   0.944
21308SOL    HW168771   6.781   7.743   0.931
21308SOL    HW268772   6.929   7.739   1.000
21309SOL     OW68773   7.162   9.110   0.307
21309SOL    HW168774   7.251   9.156   0.310
21309SOL    HW268775   7.141   9.086   0.212
21310SOL     OW68776   6.393   8.053   1.465
21310SOL    HW168777   6.346   8.050   1.554
21310SOL    HW268778   6.342   7.998   1.399
21311SOL     OW68779   6.980   7.917   1.674
21311SOL    HW168780   6.960   7.960   1.762
21311SOL    HW268781   7.058   7.855   1.683
21312SOL     OW68782   6.559   8.338   1.572
21312SOL    HW168783   6.605   8.254   1.543
21312SOL    HW268784   6.503   8.372   1.497
21313SOL     OW68785   6.577   7.858   1.242
21313SOL    HW168786   6.500   7.892   1.296
21313SOL    HW268787   6.543   7.807   1.163
21314SOL     OW68788   6.627   8.149   0.429
21314SOL    HW168789   6.653   8.145   0.525
21314SOL    HW268790   6.542   8.098   0.415
21315SOL     OW68791   5.662   8.259   0.789
21315SOL    HW168792   5.761   8.247   0.798
21315SOL    HW268793   5.638   8.354   0.810
21316SOL     OW68794   5.716   9.269   1.571
21316SOL    HW168795   5.706   9.254   1.670
21316SOL    HW268796   5.630   9.305   1.535
21317SOL     OW68797   6.451   7.796   0.195
21317SOL    HW168798   6.510   7.859   0.146
21317SOL    HW268799   6.470   7.702   0.166
21318SOL     OW68800   7.305   8.033   1.831
21318SOL    HW168801   7.279   8.122   1.795
21318SOL    HW268802   7.303   7.965   1.758
21319SOL     OW68803   6.948   8.592   0.545
21319SOL    HW168804   7.031   8.563   0.497
21319SOL    HW268805   6.899   8.659   0.489
21320SOL     OW68806   6.136   7.644   0.885
21320SOL    HW168807   6.131   7.639   0.985
21320SOL    HW268808   6.138   7.740   0.856
21321SOL     OW68809   5.937   9.249   0.853
21321SOL    HW168810   5.987   9.163   0.859
21321SOL    HW268811   6.002   9.326   0.850
21322SOL     OW68812   7.381   8.514   0.873
21322SOL    HW168813   7.319   8.499   0.797
21322SOL    HW268814   7.329   8.525   0.958
21323SOL     OW68815   6.813   8.998   1.506
21323SOL    HW168816   6.819   8.921   1.570
21323SOL    HW268817   6.761   8.972   1.426
21324SOL     OW68818   5.907   8.391   0.242
21324SOL    HW168819   5.989   8.430   0.200
21324SOL    HW268820   5.880   8.309   0.193
21325SOL     OW68821   7.044   8.183   0.728
21325SOL    HW168822   7.039   8.118   0.803
21325SOL    HW268823   7.124   8.242   0.741
21326SOL     OW68824   6.047   8.714   1.727
21326SOL    HW168825   5.997   8.715   1.641
21326SOL    HW268826   5.984   8.696   1.803
21327SOL     OW68827   5.788   7.733   1.498
21327SOL    HW168828   5.708   7.793   1.485
21327SOL    HW268829   5.778   7.684   1.584
21328SOL     OW68830   7.218   8.825   0.081
21328SOL    HW168831   7.186   8.919   0.071
21328SOL    HW268832   7.142   8.762   0.069
21329SOL     OW68833   6.050   9.191   0.323
21329SOL    HW168834   6.083   9.230   0.409
21329SOL    HW268835   6.126   9.184   0.258
21330SOL     OW68836   5.835   9.233   1.241
21330SOL    HW168837   5.892   9.168   1.291
21330SOL    HW268838   5.819   9.200   1.148
21331SOL     OW68839   6.526   9.146   0.904
21331SOL    HW168840   6.606   9.089   0.925
21331SOL    HW268841   6.477   9.106   0.827
21332SOL     OW68842   5.968   8.148   0.480
21332SOL    HW168843   6.013   8.058   0.477
21332SOL    HW268844   5.874   8.137   0.513
21333SOL     OW68845   7.133   7.670   1.729
21333SOL    HW168846   7.128   7.707   1.821
21333SOL    HW268847   7.061   7.601   1.717
21334SOL     OW68848   6.200   7.570   0.117
21334SOL    HW168849   6.298   7.548   0.124
21334SOL    HW268850   6.169   7.553   0.024
21335SOL     OW68851   6.367   7.712   1.749
21335SOL    HW168852   6.434   7.651   1.792
21335SOL    HW268853   6.294   7.731   1.814
21336SOL     OW68854   6.474   8.962   1.195
21336SOL    HW168855   6.451   8.937   1.101
21336SOL    HW268856   6.535   8.893   1.234
21337SOL     OW68857   6.937   8.038   1.433
21337SOL    HW168858   6.965   7.995   1.518
21337SOL    HW268859   6.962   8.134   1.434
21338SOL     OW68860   6.389   8.850   0.924
21338SOL    HW168861   6.479   8.864   0.882
21338SOL    HW268862   6.318   8.852   0.853
21339SOL     OW68863   6.508   7.951   0.899
21339SOL    HW168864   6.483   7.942   0.803
21339SOL    HW268865   6.556   7.869   0.930
21340SOL     OW68866   6.125   7.512   0.512
21340SOL    HW168867   6.044   7.513   0.570
21340SOL    HW268868   6.128   7.595   0.457
21341SOL     OW68869   7.020   8.636   0.041
21341SOL    HW168870   7.052   8.560   0.098
21341SOL    HW268871   6.928   8.663   0.071
21342SOL     OW68872   6.521   7.684   0.480
21342SOL    HW168873   6.473   7.725   0.402
21342SOL    HW268874   6.620   7.682   0.461
21343SOL     OW68875   6.662   8.131   1.464
21343SOL    HW168876   6.582   8.070   1.467
21343SOL    HW268877   6.743   8.078   1.440
21344SOL     OW68878   6.813   9.018   0.793
21344SOL    HW168879   6.834   9.092   0.728
21344SOL    HW268880   6.881   9.018   0.866
21345SOL     OW68881   6.045   8.600   0.741
21345SOL    HW168882   5.974   8.573   0.806
21345SOL    HW268883   6.019   8.572   0.648
21346SOL     OW68884   6.857   9.245   0.591
21346SOL    HW168885   6.901   9.309   0.527
21346SOL    HW268886   6.807   9.297   0.661
21347SOL     OW68887   6.618   7.997   0.016
21347SOL    HW168888   6.577   8.079  -0.023
21347SOL    HW268889   6.682   8.023   0.089
21348SOL     OW68890   5.664   8.004   1.386
21348SOL    HW168891   5.756   8.003   1.345
21348SOL    HW268892   5.658   8.078   1.453
21349SOL     OW68893   6.147   7.670   1.147
21349SOL    HW168894   6.185   7.586   1.184
21349SOL    HW268895   6.059   7.689   1.191
21350SOL     OW68896   6.452   7.902   0.642
21350SOL    HW168897   6.420   7.974   0.580
21350SOL    HW268898   6.476   7.821   0.589
21351SOL     OW68899   6.603   7.487   0.753
21351SOL    HW168900   6.531   7.492   0.684
21351SOL    HW268901   6.579   7.418   0.822
21352SOL     OW68902   7.015   8.621   0.867
21352SOL    HW168903   6.960   8.537   0.860
21352SOL    HW268904   7.041   8.650   0.775
21353SOL     OW68905   7.052   8.038   0.992
21353SOL    HW168906   7.022   7.943   0.999
21353SOL    HW268907   7.125   8.054   1.058
21354SOL     OW68908   7.443   8.281   0.377
21354SOL    HW168909   7.485   8.217   0.441
21354SOL    HW268910   7.405   8.230   0.299
21355SOL     OW68911   6.074   8.833   0.174
21355SOL    HW168912   5.987   8.818   0.221
21355SOL    HW268913   6.057   8.859   0.079
21356SOL     OW68914   7.250   8.728   0.657
21356SOL    HW168915   7.349   8.736   0.671
21356SOL    HW268916   7.205   8.812   0.688
21357SOL     OW68917   6.976   8.023   0.078
21357SOL    HW168918   6.922   8.002   0.159
21357SOL    HW268919   7.067   7.982   0.087
21358SOL     OW68920   6.113   7.704   0.328
21358SOL    HW168921   6.140   7.645   0.253
21358SOL    HW268922   6.113   7.799   0.297
21359SOL     OW68923   7.340   8.671   1.588
21359SOL    HW168924   7.431   8.632   1.575
21359SOL    HW268925   7.348   8.767   1.612
21360SOL     OW68926   6.650   8.795   1.340
21360SOL    HW168927   6.570   8.772   1.395
21360SOL    HW268928   6.733   8.769   1.389
21361SOL     OW68929   7.178   9.077   1.625
21361SOL    HW168930   7.205   9.111   1.535
21361SOL    HW268931   7.257   9.039   1.671
21362SOL     OW68932   7.224   8.547   1.079
21362SOL    HW168933   7.229   8.628   1.138
21362SOL    HW268934   7.138   8.549   1.028
21363SOL     OW68935   6.501   7.537   1.402
21363SOL    HW168936   6.526   7.517   1.307
21363SOL    HW268937   6.573   7.593   1.444
21364SOL     OW68938   6.566   8.564   1.719
21364SOL    HW168939   6.467   8.570   1.729
21364SOL    HW268940   6.589   8.484   1.663
21365SOL     OW68941   6.291   8.498   0.368
21365SOL    HW168942   6.277   8.505   0.467
21365SOL    HW268943   6.375   8.447   0.350
21366SOL     OW68944   5.996   8.261   1.251
21366SOL    HW168945   6.082   8.273   1.301
21366SOL    HW268946   5.954   8.174   1.278
21367SOL     OW68947   6.860   7.834   1.262
21367SOL    HW168948   6.881   7.908   1.326
21367SOL    HW268949   6.771   7.851   1.219
21368SOL     OW68950   6.152   7.985   0.865
21368SOL    HW168951   6.164   8.051   0.791
21368SOL    HW268952   6.198   8.019   0.948
21369SOL     OW68953   6.838   8.796   0.388
21369SOL    HW168954   6.888   8.873   0.428
21369SOL    HW268955   6.743   8.798   0.420
21370SOL     OW68956   6.858   8.893   1.142
21370SOL    HW168957   6.905   8.906   1.229
21370SOL    HW268958   6.792   8.819   1.151
21371SOL     OW68959   7.168   8.087   0.472
21371SOL    HW168960   7.137   8.148   0.545
21371SOL    HW268961   7.218   8.139   0.403
21372SOL     OW68962   5.940   8.958   1.329
21372SOL    HW168963   5.919   8.914   1.242
21372SOL    HW268964   6.037   8.984   1.332
21373SOL     OW68965   5.988   8.199   1.598
21373SOL    HW168966   6.056   8.254   1.551
21373SOL    HW268967   6.028   8.111   1.625
21374SOL     OW68968   7.173   8.227   1.670
21374SOL    HW168969   7.081   8.265   1.665
21374SOL    HW268970   7.233   8.274   1.605
21375SOL     OW68971   6.599   7.553   1.770
21375SOL    HW168972   6.605   7.638   1.718
21375SOL    HW268973   6.631   7.477   1.713
21376SOL     OW68974   6.090   7.498   1.740
21376SOL    HW168975   6.048   7.441   1.670
21376SOL    HW268976   6.024   7.567   1.772
21377SOL     OW68977   6.159   8.318   1.029
21377SOL    HW168978   6.203   8.407   1.020
21377SOL    HW268979   6.096   8.318   1.106
21378SOL     OW68980   6.946   8.310   1.045
21378SOL    HW168981   6.871   8.310   0.979
21378SOL    HW268982   6.983   8.218   1.054
21379SOL     OW68983   6.795   7.973   0.275
21379SOL    HW168984   6.808   7.889   0.329
21379SOL    HW268985   6.766   8.047   0.335
21380SOL     OW68986   5.893   7.661   1.231
21380SOL    HW168987   5.870   7.698   1.321
21380SOL    HW268988   5.863   7.566   1.225
21381SOL     OW68989   6.318   8.082   1.064
21381SOL    HW168990   6.377   8.056   0.988
21381SOL    HW268991   6.290   8.178   1.053
21382SOL     OW68992   7.314   8.383   1.854
21382SOL    HW168993   7.268   8.376   1.765
21382SOL    HW268994   7.252   8.427   1.920
21383SOL     OW68995   5.893   7.511   0.618
21383SOL    HW168996   5.882   7.605   0.651
21383SOL    HW268997   5.888   7.448   0.695
21384SOL     OW68998   6.566   9.021   1.700
21384SOL    HW168999   6.546   9.065   1.612
21384SOL    HW269000   6.605   8.930   1.684
21385SOL     OW69001   7.445   8.966   1.605
21385SOL    HW169002   7.459   8.993   1.510
21385SOL    HW269003   7.528   8.988   1.658
21386SOL     OW69004   5.936   8.346   1.804
21386SOL    HW169005   6.012   8.390   1.852
21386SOL    HW269006   5.971   8.299   1.722
21387SOL     OW69007   7.126   7.722   0.125
21387SOL    HW169008   7.065   7.647   0.148
21387SOL    HW269009   7.148   7.774   0.208
21388SOL     OW69010   6.654   8.781   0.849
21388SOL    HW169011   6.661   8.697   0.794
21388SOL    HW269012   6.716   8.850   0.813
21389SOL     OW69013   5.905   8.258   0.949
21389SOL    HW169014   5.998   8.294   0.954
21389SOL    HW269015   5.899   8.173   1.001
21390SOL     OW69016   5.925   7.957   1.006
21390SOL    HW169017   5.873   7.874   0.989
21390SOL    HW269018   6.002   7.962   0.942
21391SOL     OW69019   6.724   7.828   1.678
21391SOL    HW169020   6.679   7.891   1.742
21391SOL    HW269021   6.817   7.859   1.661
21392SOL     OW69022   6.746   7.655   1.477
21392SOL    HW169023   6.746   7.719   1.554
21392SOL    HW269024   6.774   7.703   1.394
21393SOL     OW69025   5.594   8.774   0.200
21393SOL    HW169026   5.501   8.795   0.169
21393SOL    HW269027   5.604   8.675   0.213
21394SOL     OW69028   5.674   9.249   0.927
21394SOL    HW169029   5.632   9.163   0.900
21394SOL    HW269030   5.768   9.252   0.893
21395SOL     OW69031   6.090   9.016   0.910
21395SOL    HW169032   6.156   9.090   0.919
21395SOL    HW269033   6.134   8.937   0.868
21396SOL     OW69034   6.588   8.244   1.238
21396SOL    HW169035   6.629   8.212   1.324
21396SOL    HW269036   6.492   8.217   1.235
21397SOL     OW69037   5.626   7.992   1.114
21397SOL    HW169038   5.711   7.959   1.073
21397SOL    HW269039   5.639   8.007   1.212
21398SOL     OW69040   5.775   7.968   1.722
21398SOL    HW169041   5.834   7.928   1.652
21398SOL    HW269042   5.717   8.039   1.681
21399SOL     OW69043   6.955   8.398   1.660
21399SOL    HW169044   6.994   8.487   1.680
21399SOL    HW269045   6.965   8.378   1.563
21400SOL     OW69046   6.401   8.020   0.325
21400SOL    HW169047   6.408   7.931   0.279
21400SOL    HW269048   6.307   8.054   0.317
21401SOL     OW69049   7.243   8.052   1.206
21401SOL    HW169050   7.205   7.983   1.268
21401SOL    HW269051   7.325   8.016   1.162
21402SOL     OW69052   5.838   9.012   1.744
21402SOL    HW169053   5.808   9.069   1.820
21402SOL    HW269054   5.831   8.915   1.770
21403SOL     OW69055   6.257   7.912   1.269
21403SOL    HW169056   6.223   7.823   1.239
21403SOL    HW269057   6.283   7.966   1.189
21404SOL     OW69058   6.516   9.126   1.465
21404SOL    HW169059   6.492   9.108   1.370
21404SOL    HW269060   6.546   9.220   1.475
21405SOL     OW69061   6.059   7.948   0.191
21405SOL    HW169062   6.120   8.028   0.195
21405SOL    HW269063   5.964   7.979   0.198
21406SOL     OW69064   6.888   8.303   0.309
21406SOL    HW169065   6.802   8.272   0.351
21406SOL    HW269066   6.884   8.289   0.210
21407SOL     OW69067   7.345   9.195   1.154
21407SOL    HW169068   7.406   9.225   1.081
21407SOL    HW269069   7.307   9.106   1.132
21408SOL     OW69070   6.838   9.179   1.128
21408SOL    HW169071   6.922   9.184   1.074
21408SOL    HW269072   6.815   9.083   1.146
21409SOL     OW69073   5.669   8.706   1.022
21409SOL    HW169074   5.664   8.705   1.122
21409SOL    HW269075   5.586   8.665   0.984
21410SOL     OW69076   6.274   9.110   1.716
21410SOL    HW169077   6.218   9.191   1.725
21410SOL    HW269078   6.326   9.114   1.630
21411SOL     OW69079   6.974   9.021   0.477
21411SOL    HW169080   7.041   9.033   0.403
21411SOL    HW269081   6.934   9.110   0.500
21412SOL     OW69082   5.716   9.242   1.851
21412SOL    HW169083   5.675   9.168   1.904
21412SOL    HW269084   5.780   9.293   1.909
21413SOL     OW69085   6.866   8.375   0.672
21413SOL    HW169086   6.926   8.294   0.674
21413SOL    HW269087   6.906   8.444   0.612
21414SOL     OW69088   6.416   8.721   1.422
21414SOL    HW169089   6.411   8.754   1.517
21414SOL    HW269090   6.330   8.740   1.376
21415SOL     OW69091   6.258   9.064   0.154
21415SOL    HW169092   6.267   9.074   0.055
21415SOL    HW269093   6.218   8.975   0.175
21416SOL     OW69094   7.236   9.168   1.394
21416SOL    HW169095   7.289   9.178   1.310
21416SOL    HW269096   7.209   9.258   1.428
21417SOL     OW69097   5.849   7.774   0.720
21417SOL    HW169098   5.770   7.825   0.686
21417SOL    HW269099   5.840   7.759   0.818
21418SOL     OW69100   6.502   8.358   0.291
21418SOL    HW169101   6.565   8.396   0.223
21418SOL    HW269102   6.542   8.275   0.330
21419SOL     OW69103   7.090   9.055   0.044
21419SOL    HW169104   6.998   9.092   0.051
21419SOL    HW269105   7.128   9.075  -0.046
21420SOL     OW69106   7.200   8.740   1.289
21420SOL    HW169107   7.260   8.743   1.369
21420SOL    HW269108   7.125   8.804   1.302
21421SOL     OW69109   6.625   8.546   0.696
21421SOL    HW169110   6.555   8.499   0.750
21421SOL    HW269111   6.684   8.478   0.653
21422SOL     OW69112   6.600   7.684   0.971
21422SOL    HW169113   6.592   7.648   0.878
21422SOL    HW269114   6.598   7.608   1.036
21423SOL     OW69115   6.176   8.935   0.491
21423SOL    HW169116   6.218   8.877   0.421
21423SOL    HW269117   6.132   9.014   0.447
21424SOL     OW69118   7.295   7.833   1.381
21424SOL    HW169119   7.368   7.902   1.385
21424SOL    HW269120   7.323   7.758   1.322
21425SOL     OW69121   5.841   8.796   0.290
21425SOL    HW169122   5.745   8.797   0.263
21425SOL    HW269123   5.853   8.849   0.374
21426SOL     OW69124   5.691   8.461   1.726
21426SOL    HW169125   5.614   8.428   1.780
21426SOL    HW269126   5.776   8.431   1.768
21427SOL     OW69127   6.258   7.651   1.489
21427SOL    HW169128   6.348   7.635   1.449
21427SOL    HW269129   6.266   7.656   1.588
21428SOL     OW69130   5.661   7.793   0.033
21428SOL    HW169131   5.569   7.765   0.004
21428SOL    HW269132   5.692   7.870  -0.023
21429SOL     OW69133   7.026   8.304   1.398
21429SOL    HW169134   6.969   8.356   1.335
21429SOL    HW269135   7.122   8.316   1.374
21430SOL     OW69136   6.769   8.783   0.119
21430SOL    HW169137   6.670   8.772   0.121
21430SOL    HW269138   6.803   8.798   0.212
21431SOL     OW69139   6.199   8.290   1.431
21431SOL    HW169140   6.255   8.371   1.414
21431SOL    HW269141   6.258   8.210   1.434
21432SOL     OW69142   7.079   9.215   0.959
21432SOL    HW169143   7.112   9.279   0.890
21432SOL    HW269144   7.145   9.209   1.034
21433SOL     OW69145   6.302   8.013   1.708
21433SOL    HW169146   6.321   8.078   1.782
21433SOL    HW269147   6.362   7.933   1.717
21434SOL     OW69148   7.036   8.668   1.633
21434SOL    HW169149   7.027   8.658   1.732
21434SOL    HW269150   7.132   8.661   1.607
21435SOL     OW69151   5.976   9.189   1.560
21435SOL    HW169152   5.885   9.230   1.558
21435SOL    HW269153   5.969   9.095   1.592
21436SOL     OW69154   7.260   8.331   1.254
21436SOL    HW169155   7.233   8.242   1.217
21436SOL    HW269156   7.261   8.399   1.181
21437SOL     OW69157   6.811   7.773   0.449
21437SOL    HW169158   6.876   7.699   0.438
21437SOL    HW269159   6.831   7.823   0.533
21438SOL     OW69160   6.180   8.193   0.652
21438SOL    HW169161   6.230   8.278   0.633
21438SOL    HW269162   6.092   8.195   0.604
21439SOL     OW69163   7.363   7.790   1.642
21439SOL    HW169164   7.346   7.821   1.548
21439SOL    HW269165   7.279   7.753   1.680
21440SOL     OW69166   7.316   8.382   1.517
21440SOL    HW169167   7.354   8.473   1.532
21440SOL    HW269168   7.308   8.365   1.418
21441SOL     OW69169   6.445   8.822   0.016
21441SOL    HW169170   6.399   8.837   0.104
21441SOL    HW269171   6.489   8.907  -0.014
21442SOL     OW69172   6.247   9.238   0.953
21442SOL    HW169173   6.201   9.326   0.940
21442SOL    HW269174   6.346   9.250   0.946
21443SOL     OW69175   6.669   8.432   0.087
21443SOL    HW169176   6.646   8.485   0.005
21443SOL    HW269177   6.750   8.376   0.068
21444SOL     OW69178   7.447   9.017   0.851
21444SOL    HW169179   7.376   9.005   0.781
21444SOL    HW269180   7.448   8.938   0.911
21445SOL     OW69181   5.807   8.762   1.844
21445SOL    HW169182   5.742   8.689   1.823
21445SOL    HW269183   5.811   8.776   1.942
21446SOL     OW69184   5.665   8.688   0.653
21446SOL    HW169185   5.664   8.641   0.741
21446SOL    HW269186   5.747   8.660   0.602
21447SOL     OW69187   6.258   8.839   1.624
21447SOL    HW169188   6.180   8.789   1.662
21447SOL    HW269189   6.255   8.934   1.655
21448SOL     OW69190   7.410   7.640   1.227
21448SOL    HW169191   7.406   7.550   1.271
21448SOL    HW269192   7.413   7.629   1.128
21449SOL     OW69193   6.014   7.872   0.520
21449SOL    HW169194   6.044   7.800   0.458
21449SOL    HW269195   5.975   7.832   0.603
21450SOL     OW69196   7.291   8.935   1.104
21450SOL    HW169197   7.198   8.910   1.077
21450SOL    HW269198   7.317   8.885   1.186
21451SOL     OW69199   5.903   7.995   1.280
21451SOL    HW169200   5.941   7.936   1.352
21451SOL    HW269201   5.943   7.969   1.192
21452SOL     OW69202   6.398   9.034   0.687
21452SOL    HW169203   6.430   9.044   0.593
21452SOL    HW269204   6.319   8.972   0.689
21453SOL     OW69205   7.010   7.662   1.112
21453SOL    HW169206   7.062   7.597   1.167
21453SOL    HW269207   6.961   7.725   1.173
21454SOL     OW69208   6.587   7.482   1.154
21454SOL    HW169209   6.524   7.410   1.123
21454SOL    HW269210   6.680   7.446   1.154
21455SOL     OW69211   6.356   8.778   0.301
21455SOL    HW169212   6.310   8.691   0.318
21455SOL    HW269213   6.447   8.775   0.342
21456SOL     OW69214   6.204   9.015   1.284
21456SOL    HW169215   6.199   9.097   1.341
21456SOL    HW269216   6.293   9.012   1.239
21457SOL     OW69217   6.886   7.901   0.691
21457SOL    HW169218   6.827   7.981   0.695
21457SOL    HW269219   6.901   7.866   0.784
21458SOL     OW69220   5.625   8.525   0.300
21458SOL    HW169221   5.724   8.514   0.291
21458SOL    HW269222   5.585   8.439   0.332
21459SOL     OW69223   5.816   8.076   1.975
21459SOL    HW169224   5.723   8.074   2.012
21459SOL    HW269225   5.817   8.037   1.883
21460SOL     OW69226   5.811   7.723   2.858
21460SOL    HW169227   5.846   7.706   2.950
21460SOL    HW269228   5.723   7.678   2.846
21461SOL     OW69229   5.605   7.816   2.509
21461SOL    HW169230   5.523   7.859   2.548
21461SOL    HW269231   5.577   7.743   2.446
21462SOL     OW69232   6.155   8.723   3.027
21462SOL    HW169233   6.062   8.716   2.990
21462SOL    HW269234   6.166   8.812   3.071
21463SOL     OW69235   7.141   8.959   2.565
21463SOL    HW169236   7.084   8.943   2.646
21463SOL    HW269237   7.082   8.969   2.485
21464SOL     OW69238   6.721   8.151   2.579
21464SOL    HW169239   6.778   8.229   2.554
21464SOL    HW269240   6.661   8.177   2.655
21465SOL     OW69241   7.341   8.055   2.093
21465SOL    HW169242   7.329   8.042   1.994
21465SOL    HW269243   7.311   7.974   2.142
21466SOL     OW69244   6.354   8.592   2.885
21466SOL    HW169245   6.276   8.609   2.945
21466SOL    HW269246   6.388   8.679   2.849
21467SOL     OW69247   6.436   8.246   3.685
21467SOL    HW169248   6.432   8.322   3.750
21467SOL    HW269249   6.458   8.282   3.594
21468SOL     OW69250   6.271   8.460   2.527
21468SOL    HW169251   6.340   8.444   2.597
21468SOL    HW269252   6.198   8.517   2.565
21469SOL     OW69253   6.272   8.609   3.665
21469SOL    HW169254   6.332   8.688   3.679
21469SOL    HW269255   6.186   8.640   3.624
21470SOL     OW69256   5.921   8.883   2.923
21470SOL    HW169257   5.843   8.852   2.870
21470SOL    HW269258   5.979   8.941   2.866
21471SOL     OW69259   7.046   8.953   3.201
21471SOL    HW169260   7.070   9.047   3.227
21471SOL    HW269261   7.030   8.899   3.283
21472SOL     OW69262   6.024   7.840   3.361
21472SOL    HW169263   6.106   7.784   3.370
21472SOL    HW269264   5.943   7.782   3.365
21473SOL     OW69265   7.189   7.895   2.599
21473SOL    HW169266   7.115   7.941   2.549
21473SOL    HW269267   7.240   7.963   2.652
21474SOL     OW69268   5.817   9.161   2.345
21474SOL    HW169269   5.851   9.238   2.399
21474SOL    HW269270   5.861   9.161   2.255
21475SOL     OW69271   6.713   8.789   3.552
21475SOL    HW169272   6.760   8.789   3.640
21475SOL    HW269273   6.665   8.702   3.541
21476SOL     OW69274   5.816   8.882   2.400
21476SOL    HW169275   5.790   8.978   2.400
21476SOL    HW269276   5.745   8.828   2.445
21477SOL     OW69277   5.826   8.539   2.748
21477SOL    HW169278   5.840   8.455   2.800
21477SOL    HW269279   5.771   8.603   2.803
21478SOL     OW69280   6.206   9.234   3.301
21478SOL    HW169281   6.114   9.217   3.336
21478SOL    HW269282   6.234   9.326   3.327
21479SOL     OW69283   6.192   8.412   1.985
21479SOL    HW169284   6.199   8.496   1.931
21479SOL    HW269285   6.238   8.425   2.073
21480SOL     OW69286   7.180   7.562   3.342
21480SOL    HW169287   7.162   7.629   3.270
21480SOL    HW269288   7.177   7.608   3.431
21481SOL     OW69289   5.708   8.091   2.425
21481SOL    HW169290   5.663   8.003   2.442
21481SOL    HW269291   5.707   8.145   2.509
21482SOL     OW69292   5.613   9.044   1.979
21482SOL    HW169293   5.594   8.948   2.000
21482SOL    HW269294   5.580   9.102   2.054
21483SOL     OW69295   7.275   8.370   2.474
21483SOL    HW169296   7.370   8.341   2.482
21483SOL    HW269297   7.267   8.435   2.399
21484SOL     OW69298   7.227   8.556   2.294
21484SOL    HW169299   7.313   8.558   2.242
21484SOL    HW269300   7.241   8.603   2.382
21485SOL     OW69301   5.699   8.185   3.459
21485SOL    HW169302   5.787   8.172   3.504
21485SOL    HW269303   5.686   8.282   3.437
21486SOL     OW69304   6.199   8.813   2.588
21486SOL    HW169305   6.150   8.726   2.597
21486SOL    HW269306   6.176   8.856   2.501
21487SOL     OW69307   6.879   8.676   3.285
21487SOL    HW169308   6.916   8.603   3.227
21487SOL    HW269309   6.931   8.681   3.370
21488SOL     OW69310   6.395   7.452   2.364
21488SOL    HW169311   6.435   7.543   2.355
21488SOL    HW269312   6.295   7.460   2.370
21489SOL     OW69313   5.783   8.424   3.126
21489SOL    HW169314   5.872   8.379   3.112
21489SOL    HW269315   5.710   8.359   3.107
21490SOL     OW69316   7.111   8.447   2.052
21490SOL    HW169317   7.048   8.371   2.065
21490SOL    HW269318   7.159   8.465   2.138
21491SOL     OW69319   6.773   9.240   3.478
21491SOL    HW169320   6.797   9.300   3.402
21491SOL    HW269321   6.780   9.145   3.448
21492SOL     OW69322   5.903   7.699   3.663
21492SOL    HW169323   5.974   7.770   3.669
21492SOL    HW269324   5.815   7.738   3.691
21493SOL     OW69325   7.052   8.865   2.815
21493SOL    HW169326   6.993   8.871   2.895
21493SOL    HW269327   7.037   8.777   2.769
21494SOL     OW69328   6.184   8.177   2.132
21494SOL    HW169329   6.208   8.246   2.064
21494SOL    HW269330   6.106   8.210   2.186
21495SOL     OW69331   6.867   7.793   2.806
21495SOL    HW169332   6.781   7.743   2.793
21495SOL    HW269333   6.929   7.739   2.862
21496SOL     OW69334   7.162   9.110   2.169
21496SOL    HW169335   7.251   9.156   2.172
21496SOL    HW269336   7.141   9.086   2.074
21497SOL     OW69337   6.393   8.053   3.327
21497SOL    HW169338   6.346   8.050   3.416
21497SOL    HW269339   6.342   7.998   3.261
21498SOL     OW69340   6.980   7.917   3.536
21498SOL    HW169341   6.960   7.960   3.624
21498SOL    HW269342   7.058   7.855   3.545
21499SOL     OW69343   6.559   8.338   3.434
21499SOL    HW169344   6.605   8.254   3.405
21499SOL    HW269345   6.503   8.372   3.359
21500SOL     OW69346   6.577   7.858   3.104
21500SOL    HW169347   6.500   7.892   3.158
21500SOL    HW269348   6.543   7.807   3.025
21501SOL     OW69349   6.627   8.149   2.291
21501SOL    HW169350   6.653   8.145   2.387
21501SOL    HW269351   6.542   8.098   2.277
21502SOL     OW69352   5.662   8.259   2.651
21502SOL    HW169353   5.761   8.247   2.660
21502SOL    HW269354   5.638   8.354   2.672
21503SOL     OW69355   5.716   9.269   3.433
21503SOL    HW169356   5.706   9.254   3.532
21503SOL    HW269357   5.630   9.305   3.397
21504SOL     OW69358   6.451   7.796   2.057
21504SOL    HW169359   6.510   7.859   2.008
21504SOL    HW269360   6.470   7.702   2.028
21505SOL     OW69361   7.305   8.033   3.693
21505SOL    HW169362   7.279   8.122   3.657
21505SOL    HW269363   7.303   7.965   3.620
21506SOL     OW69364   6.948   8.592   2.407
21506SOL    HW169365   7.031   8.563   2.359
21506SOL    HW269366   6.899   8.659   2.351
21507SOL     OW69367   6.136   7.644   2.747
21507SOL    HW169368   6.131   7.639   2.847
21507SOL    HW269369   6.138   7.740   2.718
21508SOL     OW69370   6.594   8.904   2.339
21508SOL    HW169371   6.548   8.976   2.287
21508SOL    HW269372   6.590   8.924   2.437
21509SOL     OW69373   5.937   9.249   2.715
21509SOL    HW169374   5.987   9.163   2.721
21509SOL    HW269375   6.002   9.326   2.712
21510SOL     OW69376   7.381   8.514   2.735
21510SOL    HW169377   7.319   8.499   2.659
21510SOL    HW269378   7.329   8.525   2.820
21511SOL     OW69379   6.813   8.998   3.368
21511SOL    HW169380   6.819   8.921   3.432
21511SOL    HW269381   6.761   8.972   3.288
21512SOL     OW69382   5.907   8.391   2.104
21512SOL    HW169383   5.989   8.430   2.062
21512SOL    HW269384   5.880   8.309   2.055
21513SOL     OW69385   7.044   8.183   2.590
21513SOL    HW169386   7.039   8.118   2.665
21513SOL    HW269387   7.124   8.242   2.603
21514SOL     OW69388   6.047   8.714   3.589
21514SOL    HW169389   5.997   8.715   3.503
21514SOL    HW269390   5.984   8.696   3.665
21515SOL     OW69391   6.697   9.224   2.099
21515SOL    HW169392   6.637   9.162   2.149
21515SOL    HW269393   6.728   9.180   2.014
21516SOL     OW69394   5.788   7.733   3.360
21516SOL    HW169395   5.708   7.793   3.347
21516SOL    HW269396   5.778   7.684   3.446
21517SOL     OW69397   7.218   8.825   1.943
21517SOL    HW169398   7.186   8.919   1.933
21517SOL    HW269399   7.142   8.762   1.931
21518SOL     OW69400   6.050   9.191   2.185
21518SOL    HW169401   6.083   9.230   2.271
21518SOL    HW269402   6.126   9.184   2.120
21519SOL     OW69403   6.986   7.555   2.288
21519SOL    HW169404   6.962   7.518   2.198
21519SOL    HW269405   7.085   7.571   2.292
21520SOL     OW69406   5.835   9.233   3.103
21520SOL    HW169407   5.892   9.168   3.153
21520SOL    HW269408   5.819   9.200   3.010
21521SOL     OW69409   6.526   9.146   2.766
21521SOL    HW169410   6.606   9.089   2.787
21521SOL    HW269411   6.477   9.106   2.689
21522SOL     OW69412   5.968   8.148   2.342
21522SOL    HW169413   6.013   8.058   2.339
21522SOL    HW269414   5.874   8.137   2.375
21523SOL     OW69415   6.200   7.570   1.979
21523SOL    HW169416   6.298   7.548   1.986
21523SOL    HW269417   6.169   7.553   1.886
21524SOL     OW69418   6.367   7.712   3.611
21524SOL    HW169419   6.434   7.651   3.654
21524SOL    HW269420   6.294   7.731   3.676
21525SOL     OW69421   6.474   8.962   3.057
21525SOL    HW169422   6.451   8.937   2.963
21525SOL    HW269423   6.535   8.893   3.096
21526SOL     OW69424   6.937   8.038   3.295
21526SOL    HW169425   6.965   7.995   3.380
21526SOL    HW269426   6.962   8.134   3.296
21527SOL     OW69427   6.389   8.850   2.786
21527SOL    HW169428   6.479   8.864   2.744
21527SOL    HW269429   6.318   8.852   2.715
21528SOL     OW69430   6.508   7.951   2.761
21528SOL    HW169431   6.483   7.942   2.665
21528SOL    HW269432   6.556   7.869   2.792
21529SOL     OW69433   6.125   7.512   2.374
21529SOL    HW169434   6.044   7.513   2.432
21529SOL    HW269435   6.128   7.595   2.319
21530SOL     OW69436   7.020   8.636   1.903
21530SOL    HW169437   7.052   8.560   1.960
21530SOL    HW269438   6.928   8.663   1.933
21531SOL     OW69439   5.883   7.483   2.033
21531SOL    HW169440   5.932   7.567   2.012
21531SOL    HW269441   5.945   7.418   2.078
21532SOL     OW69442   6.521   7.684   2.342
21532SOL    HW169443   6.473   7.725   2.264
21532SOL    HW269444   6.620   7.682   2.323
21533SOL     OW69445   6.662   8.131   3.326
21533SOL    HW169446   6.582   8.070   3.329
21533SOL    HW269447   6.743   8.078   3.302
21534SOL     OW69448   6.813   9.018   2.655
21534SOL    HW169449   6.834   9.092   2.590
21534SOL    HW269450   6.881   9.018   2.728
21535SOL     OW69451   6.045   8.600   2.603
21535SOL    HW169452   5.974   8.573   2.668
21535SOL    HW269453   6.019   8.572   2.510
21536SOL     OW69454   6.857   9.245   2.453
21536SOL    HW169455   6.901   9.309   2.389
21536SOL    HW269456   6.807   9.297   2.523
21537SOL     OW69457   6.618   7.997   1.878
21537SOL    HW169458   6.577   8.079   1.839
21537SOL    HW269459   6.682   8.023   1.951
21538SOL     OW69460   5.664   8.004   3.248
21538SOL    HW169461   5.756   8.003   3.207
21538SOL    HW269462   5.658   8.078   3.315
21539SOL     OW69463   6.147   7.670   3.009
21539SOL    HW169464   6.185   7.586   3.046
21539SOL    HW269465   6.059   7.689   3.053
21540SOL     OW69466   6.452   7.902   2.504
21540SOL    HW169467   6.420   7.974   2.442
21540SOL    HW269468   6.476   7.821   2.451
21541SOL     OW69469   6.603   7.487   2.615
21541SOL    HW169470   6.531   7.492   2.546
21541SOL    HW269471   6.579   7.418   2.684
21542SOL     OW69472   7.015   8.621   2.729
21542SOL    HW169473   6.960   8.537   2.722
21542SOL    HW269474   7.041   8.650   2.637
21543SOL     OW69475   7.052   8.038   2.854
21543SOL    HW169476   7.022   7.943   2.861
21543SOL    HW269477   7.125   8.054   2.920
21544SOL     OW69478   7.443   8.281   2.239
21544SOL    HW169479   7.485   8.217   2.303
21544SOL    HW269480   7.405   8.230   2.161
21545SOL     OW69481   6.074   8.833   2.036
21545SOL    HW169482   5.987   8.818   2.083
21545SOL    HW269483   6.057   8.859   1.941
21546SOL     OW69484   7.250   8.728   2.519
21546SOL    HW169485   7.349   8.736   2.533
21546SOL    HW269486   7.205   8.812   2.550
21547SOL     OW69487   6.976   8.023   1.940
21547SOL    HW169488   6.922   8.002   2.021
21547SOL    HW269489   7.067   7.982   1.949
21548SOL     OW69490   6.113   7.704   2.190
21548SOL    HW169491   6.140   7.645   2.115
21548SOL    HW269492   6.113   7.799   2.159
21549SOL     OW69493   7.340   8.671   3.450
21549SOL    HW169494   7.431   8.632   3.437
21549SOL    HW269495   7.348   8.767   3.474
21550SOL     OW69496   6.650   8.795   3.202
21550SOL    HW169497   6.570   8.772   3.257
21550SOL    HW269498   6.733   8.769   3.251
21551SOL     OW69499   7.178   9.077   3.487
21551SOL    HW169500   7.205   9.111   3.397
21551SOL    HW269501   7.257   9.039   3.533
21552SOL     OW69502   6.697   8.643   2.962
21552SOL    HW169503   6.657   8.687   3.043
21552SOL    HW269504   6.656   8.680   2.879
21553SOL     OW69505   7.224   8.547   2.941
21553SOL    HW169506   7.229   8.628   3.000
21553SOL    HW269507   7.138   8.549   2.890
21554SOL     OW69508   6.566   8.564   3.581
21554SOL    HW169509   6.467   8.570   3.591
21554SOL    HW269510   6.589   8.484   3.525
21555SOL     OW69511   6.291   8.498   2.230
21555SOL    HW169512   6.277   8.505   2.329
21555SOL    HW269513   6.375   8.447   2.212
21556SOL     OW69514   5.996   8.261   3.113
21556SOL    HW169515   6.082   8.273   3.163
21556SOL    HW269516   5.954   8.174   3.140
21557SOL     OW69517   6.860   7.834   3.124
21557SOL    HW169518   6.881   7.908   3.188
21557SOL    HW269519   6.771   7.851   3.081
21558SOL     OW69520   5.650   9.012   3.193
21558SOL    HW169521   5.604   9.094   3.159
21558SOL    HW269522   5.748   9.031   3.202
21559SOL     OW69523   5.953   8.548   2.363
21559SOL    HW169524   5.946   8.631   2.307
21559SOL    HW269525   5.957   8.468   2.303
21560SOL     OW69526   6.152   7.985   2.727
21560SOL    HW169527   6.164   8.051   2.653
21560SOL    HW269528   6.198   8.019   2.810
21561SOL     OW69529   6.838   8.796   2.250
21561SOL    HW169530   6.888   8.873   2.290
21561SOL    HW269531   6.743   8.798   2.282
21562SOL     OW69532   6.858   8.893   3.004
21562SOL    HW169533   6.905   8.906   3.091
21562SOL    HW269534   6.792   8.819   3.013
21563SOL     OW69535   7.168   8.087   2.334
21563SOL    HW169536   7.137   8.148   2.407
21563SOL    HW269537   7.218   8.139   2.265
21564SOL     OW69538   5.940   8.958   3.191
21564SOL    HW169539   5.919   8.914   3.104
21564SOL    HW269540   6.037   8.984   3.194
21565SOL     OW69541   5.988   8.199   3.460
21565SOL    HW169542   6.056   8.254   3.413
21565SOL    HW269543   6.028   8.111   3.487
21566SOL     OW69544   7.173   8.227   3.532
21566SOL    HW169545   7.081   8.265   3.527
21566SOL    HW269546   7.233   8.274   3.467
21567SOL     OW69547   6.599   7.553   3.632
21567SOL    HW169548   6.605   7.638   3.580
21567SOL    HW269549   6.631   7.477   3.575
21568SOL     OW69550   6.090   7.498   3.602
21568SOL    HW169551   6.048   7.441   3.532
21568SOL    HW269552   6.024   7.567   3.634
21569SOL     OW69553   6.159   8.318   2.891
21569SOL    HW169554   6.203   8.407   2.882
21569SOL    HW269555   6.096   8.318   2.968
21570SOL     OW69556   6.946   8.310   2.907
21570SOL    HW169557   6.871   8.310   2.841
21570SOL    HW269558   6.983   8.218   2.916
21571SOL     OW69559   6.795   7.973   2.137
21571SOL    HW169560   6.808   7.889   2.191
21571SOL    HW269561   6.766   8.047   2.197
21572SOL     OW69562   5.893   7.661   3.093
21572SOL    HW169563   5.870   7.698   3.183
21572SOL    HW269564   5.863   7.566   3.087
21573SOL     OW69565   5.623   8.758   3.144
21573SOL    HW169566   5.676   8.709   3.212
21573SOL    HW269567   5.645   8.856   3.149
21574SOL     OW69568   6.318   8.082   2.926
21574SOL    HW169569   6.377   8.056   2.850
21574SOL    HW269570   6.290   8.178   2.915
21575SOL     OW69571   7.314   8.383   3.716
21575SOL    HW169572   7.268   8.376   3.627
21575SOL    HW269573   7.252   8.427   3.782
21576SOL     OW69574   5.893   7.511   2.480
21576SOL    HW169575   5.882   7.605   2.513
21576SOL    HW269576   5.888   7.448   2.557
21577SOL     OW69577   7.208   7.815   2.236
21577SOL    HW169578   7.210   7.739   2.300
21577SOL    HW269579   7.160   7.892   2.276
21578SOL     OW69580   6.609   8.214   2.828
21578SOL    HW169581   6.624   8.235   2.924
21578SOL    HW269582   6.579   8.119   2.819
21579SOL     OW69583   6.566   9.021   3.562
21579SOL    HW169584   6.546   9.065   3.474
21579SOL    HW269585   6.605   8.930   3.546
21580SOL     OW69586   7.445   8.966   3.467
21580SOL    HW169587   7.459   8.993   3.372
21580SOL    HW269588   7.528   8.988   3.520
21581SOL     OW69589   5.936   8.346   3.666
21581SOL    HW169590   6.012   8.390   3.714
21581SOL    HW269591   5.971   8.299   3.584
21582SOL     OW69592   7.126   7.722   1.987
21582SOL    HW169593   7.065   7.647   2.010
21582SOL    HW269594   7.148   7.774   2.070
21583SOL     OW69595   6.889   8.286   1.904
21583SOL    HW169596   6.923   8.193   1.919
21583SOL    HW269597   6.907   8.313   1.809
21584SOL     OW69598   6.654   8.781   2.711
21584SOL    HW169599   6.661   8.697   2.656
21584SOL    HW269600   6.716   8.850   2.675
21585SOL     OW69601   5.905   8.258   2.811
21585SOL    HW169602   5.998   8.294   2.816
21585SOL    HW269603   5.899   8.173   2.863
21586SOL     OW69604   5.925   7.957   2.868
21586SOL    HW169605   5.873   7.874   2.851
21586SOL    HW269606   6.002   7.962   2.804
21587SOL     OW69607   6.724   7.828   3.540
21587SOL    HW169608   6.679   7.891   3.604
21587SOL    HW269609   6.817   7.859   3.523
21588SOL     OW69610   6.746   7.655   3.339
21588SOL    HW169611   6.746   7.719   3.416
21588SOL    HW269612   6.774   7.703   3.256
21589SOL     OW69613   5.594   8.774   2.062
21589SOL    HW169614   5.501   8.795   2.031
21589SOL    HW269615   5.604   8.675   2.075
21590SOL     OW69616   5.674   9.249   2.789
21590SOL    HW169617   5.632   9.163   2.762
21590SOL    HW269618   5.768   9.252   2.755
21591SOL     OW69619   6.090   9.016   2.772
21591SOL    HW169620   6.156   9.090   2.781
21591SOL    HW269621   6.134   8.937   2.730
21592SOL     OW69622   6.588   8.244   3.100
21592SOL    HW169623   6.629   8.212   3.186
21592SOL    HW269624   6.492   8.217   3.097
21593SOL     OW69625   5.626   7.992   2.976
21593SOL    HW169626   5.711   7.959   2.935
21593SOL    HW269627   5.639   8.007   3.074
21594SOL     OW69628   5.775   7.968   3.584
21594SOL    HW169629   5.834   7.928   3.514
21594SOL    HW269630   5.717   8.039   3.543
21595SOL     OW69631   6.955   8.398   3.522
21595SOL    HW169632   6.994   8.487   3.542
21595SOL    HW269633   6.965   8.378   3.425
21596SOL     OW69634   6.401   8.020   2.187
21596SOL    HW169635   6.408   7.931   2.141
21596SOL    HW269636   6.307   8.054   2.179
21597SOL     OW69637   7.243   8.052   3.068
21597SOL    HW169638   7.205   7.983   3.130
21597SOL    HW269639   7.325   8.016   3.024
21598SOL     OW69640   5.838   9.012   3.606
21598SOL    HW169641   5.808   9.069   3.682
21598SOL    HW269642   5.831   8.915   3.632
21599SOL     OW69643   6.257   7.912   3.131
21599SOL    HW169644   6.223   7.823   3.101
21599SOL    HW269645   6.283   7.966   3.051
21600SOL     OW69646   6.516   9.126   3.327
21600SOL    HW169647   6.492   9.108   3.232
21600SOL    HW269648   6.546   9.220   3.337
21601SOL     OW69649   6.059   7.948   2.053
21601SOL    HW169650   6.120   8.028   2.057
21601SOL    HW269651   5.964   7.979   2.060
21602SOL     OW69652   5.745   8.585   3.328
21602SOL    HW169653   5.767   8.524   3.404
21602SOL    HW269654   5.755   8.536   3.242
21603SOL     OW69655   6.933   8.507   3.096
21603SOL    HW169656   6.957   8.444   3.022
21603SOL    HW269657   6.843   8.547   3.078
21604SOL     OW69658   6.888   8.303   2.171
21604SOL    HW169659   6.802   8.272   2.213
21604SOL    HW269660   6.884   8.289   2.072
21605SOL     OW69661   7.345   9.195   3.016
21605SOL    HW169662   7.406   9.225   2.943
21605SOL    HW269663   7.307   9.106   2.994
21606SOL     OW69664   6.838   9.179   2.990
21606SOL    HW169665   6.922   9.184   2.936
21606SOL    HW269666   6.815   9.083   3.008
21607SOL     OW69667   5.669   8.706   2.884
21607SOL    HW169668   5.664   8.705   2.984
21607SOL    HW269669   5.586   8.665   2.846
21608SOL     OW69670   6.274   9.110   3.578
21608SOL    HW169671   6.218   9.191   3.587
21608SOL    HW269672   6.326   9.114   3.492
21609SOL     OW69673   7.312   7.583   2.385
21609SOL    HW169674   7.385   7.566   2.318
21609SOL    HW269675   7.281   7.496   2.423
21610SOL     OW69676   6.974   9.021   2.339
21610SOL    HW169677   7.041   9.033   2.265
21610SOL    HW269678   6.934   9.110   2.362
21611SOL     OW69679   5.716   9.242   3.713
21611SOL    HW169680   5.675   9.168   3.766
21611SOL    HW269681   5.780   9.293   3.771
21612SOL     OW69682   6.866   8.375   2.534
21612SOL    HW169683   6.926   8.294   2.536
21612SOL    HW269684   6.906   8.444   2.474
21613SOL     OW69685   6.416   8.721   3.284
21613SOL    HW169686   6.411   8.754   3.379
21613SOL    HW269687   6.330   8.740   3.238
21614SOL     OW69688   6.258   9.064   2.016
21614SOL    HW169689   6.267   9.074   1.917
21614SOL    HW269690   6.218   8.975   2.037
21615SOL     OW69691   7.236   9.168   3.256
21615SOL    HW169692   7.289   9.178   3.172
21615SOL    HW269693   7.209   9.258   3.290
21616SOL     OW69694   7.427   7.623   2.825
21616SOL    HW169695   7.466   7.538   2.789
21616SOL    HW269696   7.329   7.625   2.806
21617SOL     OW69697   5.849   7.774   2.582
21617SOL    HW169698   5.770   7.825   2.548
21617SOL    HW269699   5.840   7.759   2.680
21618SOL     OW69700   6.780   9.060   1.893
21618SOL    HW169701   6.786   8.967   1.930
21618SOL    HW269702   6.721   9.060   1.813
21619SOL     OW69703   6.408   8.450   3.234
21619SOL    HW169704   6.448   8.449   3.142
21619SOL    HW269705   6.418   8.542   3.274
21620SOL     OW69706   6.502   8.358   2.153
21620SOL    HW169707   6.565   8.396   2.085
21620SOL    HW269708   6.542   8.275   2.192
21621SOL     OW69709   7.090   9.055   1.906
21621SOL    HW169710   6.998   9.092   1.913
21621SOL    HW269711   7.128   9.075   1.816
21622SOL     OW69712   5.958   8.736   3.352
21622SOL    HW169713   5.945   8.829   3.318
21622SOL    HW269714   5.874   8.684   3.339
21623SOL     OW69715   6.625   8.546   2.558
21623SOL    HW169716   6.555   8.499   2.612
21623SOL    HW269717   6.684   8.478   2.515
21624SOL     OW69718   6.600   7.684   2.833
21624SOL    HW169719   6.592   7.648   2.740
21624SOL    HW269720   6.598   7.608   2.898
21625SOL     OW69721   6.176   8.935   2.353
21625SOL    HW169722   6.218   8.877   2.283
21625SOL    HW269723   6.132   9.014   2.309
21626SOL     OW69724   7.295   7.833   3.243
21626SOL    HW169725   7.368   7.902   3.247
21626SOL    HW269726   7.323   7.758   3.184
21627SOL     OW69727   5.841   8.796   2.152
21627SOL    HW169728   5.745   8.797   2.125
21627SOL    HW269729   5.853   8.849   2.236
21628SOL     OW69730   5.691   8.461   3.588
21628SOL    HW169731   5.614   8.428   3.642
21628SOL    HW269732   5.776   8.431   3.630
21629SOL     OW69733   6.258   7.651   3.351
21629SOL    HW169734   6.348   7.635   3.311
21629SOL    HW269735   6.266   7.656   3.450
21630SOL     OW69736   5.661   7.793   1.895
21630SOL    HW169737   5.569   7.765   1.866
21630SOL    HW269738   5.692   7.870   1.839
21631SOL     OW69739   7.026   8.304   3.260
21631SOL    HW169740   6.969   8.356   3.197
21631SOL    HW269741   7.122   8.316   3.236
21632SOL     OW69742   5.658   7.614   2.180
21632SOL    HW169743   5.641   7.697   2.126
21632SOL    HW269744   5.748   7.577   2.158
21633SOL     OW69745   6.769   8.783   1.981
21633SOL    HW169746   6.670   8.772   1.983
21633SOL    HW269747   6.803   8.798   2.074
21634SOL     OW69748   6.199   8.290   3.293
21634SOL    HW169749   6.255   8.371   3.276
21634SOL    HW269750   6.258   8.210   3.296
21635SOL     OW69751   7.079   9.215   2.821
21635SOL    HW169752   7.112   9.279   2.752
21635SOL    HW269753   7.145   9.209   2.896
21636SOL     OW69754   6.302   8.013   3.570
21636SOL    HW169755   6.321   8.078   3.644
21636SOL    HW269756   6.362   7.933   3.579
21637SOL     OW69757   7.036   8.668   3.495
21637SOL    HW169758   7.027   8.658   3.594
21637SOL    HW269759   7.132   8.661   3.469
21638SOL     OW69760   5.976   9.189   3.422
21638SOL    HW169761   5.885   9.230   3.420
21638SOL    HW269762   5.969   9.095   3.454
21639SOL     OW69763   7.260   8.331   3.116
21639SOL    HW169764   7.233   8.242   3.079
21639SOL    HW269765   7.261   8.399   3.043
21640SOL     OW69766   6.811   7.773   2.311
21640SOL    HW169767   6.876   7.699   2.300
21640SOL    HW269768   6.831   7.823   2.395
21641SOL     OW69769   7.363   7.790   3.504
21641SOL    HW169770   7.346   7.821   3.410
21641SOL    HW269771   7.279   7.753   3.542
21642SOL     OW69772   7.316   8.382   3.379
21642SOL    HW169773   7.354   8.473   3.394
21642SOL    HW269774   7.308   8.365   3.280
21643SOL     OW69775   6.445   8.822   1.878
21643SOL    HW169776   6.399   8.837   1.966
21643SOL    HW269777   6.489   8.907   1.848
21644SOL     OW69778   6.247   9.238   2.815
21644SOL    HW169779   6.201   9.326   2.802
21644SOL    HW269780   6.346   9.250   2.808
21645SOL     OW69781   6.445   8.404   2.723
21645SOL    HW169782   6.499   8.335   2.771
21645SOL    HW269783   6.413   8.473   2.789
21646SOL     OW69784   6.669   8.432   1.949
21646SOL    HW169785   6.646   8.485   1.867
21646SOL    HW269786   6.750   8.376   1.930
21647SOL     OW69787   7.447   9.017   2.713
21647SOL    HW169788   7.376   9.005   2.643
21647SOL    HW269789   7.448   8.938   2.773
21648SOL     OW69790   5.807   8.762   3.706
21648SOL    HW169791   5.742   8.689   3.685
21648SOL    HW269792   5.811   8.776   3.804
21649SOL     OW69793   5.665   8.688   2.515
21649SOL    HW169794   5.664   8.641   2.603
21649SOL    HW269795   5.747   8.660   2.464
21650SOL     OW69796   6.258   8.839   3.486
21650SOL    HW169797   6.180   8.789   3.524
21650SOL    HW269798   6.255   8.934   3.517
21651SOL     OW69799   7.410   7.640   3.089
21651SOL    HW169800   7.406   7.550   3.133
21651SOL    HW269801   7.413   7.629   2.990
21652SOL     OW69802   6.014   7.872   2.382
21652SOL    HW169803   6.044   7.800   2.320
21652SOL    HW269804   5.975   7.832   2.465
21653SOL     OW69805   7.291   8.935   2.966
21653SOL    HW169806   7.198   8.910   2.939
21653SOL    HW269807   7.317   8.885   3.048
21654SOL     OW69808   5.903   7.995   3.142
21654SOL    HW169809   5.941   7.936   3.214
21654SOL    HW269810   5.943   7.969   3.054
21655SOL     OW69811   6.398   9.034   2.549
21655SOL    HW169812   6.430   9.044   2.455
21655SOL    HW269813   6.319   8.972   2.551
21656SOL     OW69814   7.010   7.662   2.974
21656SOL    HW169815   7.062   7.597   3.029
21656SOL    HW269816   6.961   7.725   3.035
21657SOL     OW69817   6.587   7.482   3.016
21657SOL    HW169818   6.524   7.410   2.985
21657SOL    HW269819   6.680   7.446   3.016
21658SOL     OW69820   6.356   8.778   2.163
21658SOL    HW169821   6.310   8.691   2.180
21658SOL    HW269822   6.447   8.775   2.204
21659SOL     OW69823   6.204   9.015   3.146
21659SOL    HW169824   6.199   9.097   3.203
21659SOL    HW269825   6.293   9.012   3.101
21660SOL     OW69826   6.938   7.500   2.030
21660SOL    HW169827   6.973   7.459   1.946
21660SOL    HW269828   6.848   7.462   2.050
21661SOL     OW69829   6.886   7.901   2.553
21661SOL    HW169830   6.827   7.981   2.557
21661SOL    HW269831   6.901   7.866   2.646
21662SOL     OW69832   7.179   7.669   2.744
21662SOL    HW169833   7.095   7.668   2.798
21662SOL    HW269834   7.181   7.752   2.688
21663SOL     OW69835   5.625   8.525   2.162
21663SOL    HW169836   5.724   8.514   2.153
21663SOL    HW269837   5.585   8.439   2.194
21664SOL     OW69838   6.461   9.094   2.199
21664SOL    HW169839   6.384   9.059   2.145
21664SOL    HW269840   6.429   9.165   2.261
21665SOL     OW69841   5.816   8.076   3.837
21665SOL    HW169842   5.723   8.074   3.874
21665SOL    HW269843   5.817   8.037   3.745
21666SOL     OW69844   5.605   7.816   4.371
21666SOL    HW169845   5.523   7.859   4.410
21666SOL    HW269846   5.577   7.743   4.308
21667SOL     OW69847   7.141   8.959   4.427
21667SOL    HW169848   7.084   8.943   4.508
21667SOL    HW269849   7.082   8.969   4.347
21668SOL     OW69850   7.341   8.055   3.955
21668SOL    HW169851   7.329   8.042   3.856
21668SOL    HW269852   7.311   7.974   4.004
21669SOL     OW69853   6.354   8.592   4.747
21669SOL    HW169854   6.276   8.609   4.807
21669SOL    HW269855   6.388   8.679   4.711
21670SOL     OW69856   6.436   8.246   5.547
21670SOL    HW169857   6.432   8.322   5.612
21670SOL    HW269858   6.458   8.282   5.456
21671SOL     OW69859   6.271   8.460   4.389
21671SOL    HW169860   6.340   8.444   4.459
21671SOL    HW269861   6.198   8.517   4.427
21672SOL     OW69862   6.272   8.609   5.527
21672SOL    HW169863   6.332   8.688   5.541
21672SOL    HW269864   6.186   8.640   5.486
21673SOL     OW69865   7.046   8.953   5.063
21673SOL    HW169866   7.070   9.047   5.089
21673SOL    HW269867   7.030   8.899   5.145
21674SOL     OW69868   6.024   7.840   5.223
21674SOL    HW169869   6.106   7.784   5.232
21674SOL    HW269870   5.943   7.782   5.227
21675SOL     OW69871   7.189   7.895   4.461
21675SOL    HW169872   7.115   7.941   4.411
21675SOL    HW269873   7.240   7.963   4.514
21676SOL     OW69874   5.817   9.161   4.207
21676SOL    HW169875   5.851   9.238   4.261
21676SOL    HW269876   5.861   9.161   4.117
21677SOL     OW69877   6.713   8.789   5.414
21677SOL    HW169878   6.760   8.789   5.502
21677SOL    HW269879   6.665   8.702   5.403
21678SOL     OW69880   5.816   8.882   4.262
21678SOL    HW169881   5.790   8.978   4.262
21678SOL    HW269882   5.745   8.828   4.307
21679SOL     OW69883   5.826   8.539   4.610
21679SOL    HW169884   5.840   8.455   4.662
21679SOL    HW269885   5.771   8.603   4.665
21680SOL     OW69886   6.192   8.412   3.847
21680SOL    HW169887   6.199   8.496   3.793
21680SOL    HW269888   6.238   8.425   3.935
21681SOL     OW69889   7.180   7.562   5.204
21681SOL    HW169890   7.162   7.629   5.132
21681SOL    HW269891   7.177   7.608   5.293
21682SOL     OW69892   5.708   8.091   4.287
21682SOL    HW169893   5.663   8.003   4.304
21682SOL    HW269894   5.707   8.145   4.371
21683SOL     OW69895   7.428   9.215   4.083
21683SOL    HW169896   7.482   9.186   4.163
21683SOL    HW269897   7.458   9.305   4.054
21684SOL     OW69898   5.613   9.044   3.841
21684SOL    HW169899   5.594   8.948   3.862
21684SOL    HW269900   5.580   9.102   3.916
21685SOL     OW69901   7.275   8.370   4.336
21685SOL    HW169902   7.370   8.341   4.344
21685SOL    HW269903   7.267   8.435   4.261
21686SOL     OW69904   7.227   8.556   4.156
21686SOL    HW169905   7.313   8.558   4.104
21686SOL    HW269906   7.241   8.603   4.244
21687SOL     OW69907   5.699   8.185   5.321
21687SOL    HW169908   5.787   8.172   5.366
21687SOL    HW269909   5.686   8.282   5.299
21688SOL     OW69910   6.199   8.813   4.450
21688SOL    HW169911   6.150   8.726   4.459
21688SOL    HW269912   6.176   8.856   4.363
21689SOL     OW69913   6.879   8.676   5.147
21689SOL    HW169914   6.916   8.603   5.089
21689SOL    HW269915   6.931   8.681   5.232
21690SOL     OW69916   6.395   7.452   4.226
21690SOL    HW169917   6.435   7.543   4.217
21690SOL    HW269918   6.295   7.460   4.232
21691SOL     OW69919   5.783   8.424   4.988
21691SOL    HW169920   5.872   8.379   4.974
21691SOL    HW269921   5.710   8.359   4.969
21692SOL     OW69922   7.111   8.447   3.914
21692SOL    HW169923   7.048   8.371   3.927
21692SOL    HW269924   7.159   8.465   4.000
21693SOL     OW69925   6.773   9.240   5.340
21693SOL    HW169926   6.797   9.300   5.264
21693SOL    HW269927   6.780   9.145   5.310
21694SOL     OW69928   5.903   7.699   5.525
21694SOL    HW169929   5.974   7.770   5.531
21694SOL    HW269930   5.815   7.738   5.553
21695SOL     OW69931   7.052   8.865   4.677
21695SOL    HW169932   6.993   8.871   4.757
21695SOL    HW269933   7.037   8.777   4.631
21696SOL     OW69934   7.253   9.162   4.296
21696SOL    HW169935   7.212   9.139   4.208
21696SOL    HW269936   7.235   9.088   4.361
21697SOL     OW69937   6.184   8.177   3.994
21697SOL    HW169938   6.208   8.246   3.926
21697SOL    HW269939   6.106   8.210   4.048
21698SOL     OW69940   7.162   9.110   4.031
21698SOL    HW169941   7.251   9.156   4.034
21698SOL    HW269942   7.141   9.086   3.936
21699SOL     OW69943   6.393   8.053   5.189
21699SOL    HW169944   6.346   8.050   5.278
21699SOL    HW269945   6.342   7.998   5.123
21700SOL     OW69946   6.980   7.917   5.398
21700SOL    HW169947   6.960   7.960   5.486
21700SOL    HW269948   7.058   7.855   5.407
21701SOL     OW69949   6.559   8.338   5.296
21701SOL    HW169950   6.605   8.254   5.267
21701SOL    HW269951   6.503   8.372   5.221
21702SOL     OW69952   6.627   8.149   4.153
21702SOL    HW169953   6.653   8.145   4.249
21702SOL    HW269954   6.542   8.098   4.139
21703SOL     OW69955   5.662   8.259   4.513
21703SOL    HW169956   5.761   8.247   4.522
21703SOL    HW269957   5.638   8.354   4.534
21704SOL     OW69958   5.716   9.269   5.295
21704SOL    HW169959   5.706   9.254   5.394
21704SOL    HW269960   5.630   9.305   5.259
21705SOL     OW69961   6.451   7.796   3.919
21705SOL    HW169962   6.510   7.859   3.870
21705SOL    HW269963   6.470   7.702   3.890
21706SOL     OW69964   7.305   8.033   5.555
21706SOL    HW169965   7.279   8.122   5.519
21706SOL    HW269966   7.303   7.965   5.482
21707SOL     OW69967   6.948   8.592   4.269
21707SOL    HW169968   7.031   8.563   4.221
21707SOL    HW269969   6.899   8.659   4.213
21708SOL     OW69970   6.136   7.644   4.609
21708SOL    HW169971   6.131   7.639   4.709
21708SOL    HW269972   6.138   7.740   4.580
21709SOL     OW69973   6.594   8.904   4.201
21709SOL    HW169974   6.548   8.976   4.149
21709SOL    HW269975   6.590   8.924   4.299
21710SOL     OW69976   5.937   9.249   4.577
21710SOL    HW169977   5.987   9.163   4.583
21710SOL    HW269978   6.002   9.326   4.574
21711SOL     OW69979   7.381   8.514   4.597
21711SOL    HW169980   7.319   8.499   4.521
21711SOL    HW269981   7.329   8.525   4.682
21712SOL     OW69982   6.813   8.998   5.230
21712SOL    HW169983   6.819   8.921   5.294
21712SOL    HW269984   6.761   8.972   5.150
21713SOL     OW69985   5.907   8.391   3.966
21713SOL    HW169986   5.989   8.430   3.924
21713SOL    HW269987   5.880   8.309   3.917
21714SOL     OW69988   7.044   8.183   4.452
21714SOL    HW169989   7.039   8.118   4.527
21714SOL    HW269990   7.124   8.242   4.465
21715SOL     OW69991   6.047   8.714   5.451
21715SOL    HW169992   5.997   8.715   5.365
21715SOL    HW269993   5.984   8.696   5.527
21716SOL     OW69994   6.697   9.224   3.961
21716SOL    HW169995   6.637   9.162   4.011
21716SOL    HW269996   6.728   9.180   3.876
21717SOL     OW69997   5.788   7.733   5.222
21717SOL    HW169998   5.708   7.793   5.209
21717SOL    HW269999   5.778   7.684   5.308
21718SOL     OW70000   7.218   8.825   3.805
21718SOL    HW170001   7.186   8.919   3.795
21718SOL    HW270002   7.142   8.762   3.793
21719SOL     OW70003   6.050   9.191   4.047
21719SOL    HW170004   6.083   9.230   4.133
21719SOL    HW270005   6.126   9.184   3.982
21720SOL     OW70006   6.986   7.555   4.150
21720SOL    HW170007   6.962   7.518   4.060
21720SOL    HW270008   7.085   7.571   4.154
21721SOL     OW70009   6.526   9.146   4.628
21721SOL    HW170010   6.606   9.089   4.649
21721SOL    HW270011   6.477   9.106   4.551
21722SOL     OW70012   7.133   7.670   5.453
21722SOL    HW170013   7.128   7.707   5.545
21722SOL    HW270014   7.061   7.601   5.441
21723SOL     OW70015   6.200   7.570   3.841
21723SOL    HW170016   6.298   7.548   3.848
21723SOL    HW270017   6.169   7.553   3.748
21724SOL     OW70018   6.367   7.712   5.473
21724SOL    HW170019   6.434   7.651   5.516
21724SOL    HW270020   6.294   7.731   5.538
21725SOL     OW70021   6.474   8.962   4.919
21725SOL    HW170022   6.451   8.937   4.825
21725SOL    HW270023   6.535   8.893   4.958
21726SOL     OW70024   6.937   8.038   5.157
21726SOL    HW170025   6.965   7.995   5.242
21726SOL    HW270026   6.962   8.134   5.158
21727SOL     OW70027   6.389   8.850   4.648
21727SOL    HW170028   6.479   8.864   4.606
21727SOL    HW270029   6.318   8.852   4.577
21728SOL     OW70030   6.125   7.512   4.236
21728SOL    HW170031   6.044   7.513   4.294
21728SOL    HW270032   6.128   7.595   4.181
21729SOL     OW70033   7.020   8.636   3.765
21729SOL    HW170034   7.052   8.560   3.822
21729SOL    HW270035   6.928   8.663   3.795
21730SOL     OW70036   6.521   7.684   4.204
21730SOL    HW170037   6.473   7.725   4.126
21730SOL    HW270038   6.620   7.682   4.185
21731SOL     OW70039   6.662   8.131   5.188
21731SOL    HW170040   6.582   8.070   5.191
21731SOL    HW270041   6.743   8.078   5.164
21732SOL     OW70042   6.813   9.018   4.517
21732SOL    HW170043   6.834   9.092   4.452
21732SOL    HW270044   6.881   9.018   4.590
21733SOL     OW70045   6.045   8.600   4.465
21733SOL    HW170046   5.974   8.573   4.530
21733SOL    HW270047   6.019   8.572   4.372
21734SOL     OW70048   6.857   9.245   4.315
21734SOL    HW170049   6.901   9.309   4.251
21734SOL    HW270050   6.807   9.297   4.385
21735SOL     OW70051   6.618   7.997   3.740
21735SOL    HW170052   6.577   8.079   3.701
21735SOL    HW270053   6.682   8.023   3.813
21736SOL     OW70054   5.664   8.004   5.110
21736SOL    HW170055   5.756   8.003   5.069
21736SOL    HW270056   5.658   8.078   5.177
21737SOL     OW70057   6.147   7.670   4.871
21737SOL    HW170058   6.185   7.586   4.908
21737SOL    HW270059   6.059   7.689   4.915
21738SOL     OW70060   6.452   7.902   4.366
21738SOL    HW170061   6.420   7.974   4.304
21738SOL    HW270062   6.476   7.821   4.313
21739SOL     OW70063   6.603   7.487   4.477
21739SOL    HW170064   6.531   7.492   4.408
21739SOL    HW270065   6.579   7.418   4.546
21740SOL     OW70066   7.015   8.621   4.591
21740SOL    HW170067   6.960   8.537   4.584
21740SOL    HW270068   7.041   8.650   4.499
21741SOL     OW70069   7.052   8.038   4.716
21741SOL    HW170070   7.022   7.943   4.723
21741SOL    HW270071   7.125   8.054   4.782
21742SOL     OW70072   7.443   8.281   4.101
21742SOL    HW170073   7.485   8.217   4.165
21742SOL    HW270074   7.405   8.230   4.023
21743SOL     OW70075   6.074   8.833   3.898
21743SOL    HW170076   5.987   8.818   3.945
21743SOL    HW270077   6.057   8.859   3.803
21744SOL     OW70078   7.250   8.728   4.381
21744SOL    HW170079   7.349   8.736   4.395
21744SOL    HW270080   7.205   8.812   4.412
21745SOL     OW70081   6.976   8.023   3.802
21745SOL    HW170082   6.922   8.002   3.883
21745SOL    HW270083   7.067   7.982   3.811
21746SOL     OW70084   6.113   7.704   4.052
21746SOL    HW170085   6.140   7.645   3.977
21746SOL    HW270086   6.113   7.799   4.021
21747SOL     OW70087   7.340   8.671   5.312
21747SOL    HW170088   7.431   8.632   5.299
21747SOL    HW270089   7.348   8.767   5.336
21748SOL     OW70090   6.650   8.795   5.064
21748SOL    HW170091   6.570   8.772   5.119
21748SOL    HW270092   6.733   8.769   5.113
21749SOL     OW70093   7.178   9.077   5.349
21749SOL    HW170094   7.205   9.111   5.259
21749SOL    HW270095   7.257   9.039   5.395
21750SOL     OW70096   6.697   8.643   4.824
21750SOL    HW170097   6.657   8.687   4.905
21750SOL    HW270098   6.656   8.680   4.741
21751SOL     OW70099   7.224   8.547   4.803
21751SOL    HW170100   7.229   8.628   4.862
21751SOL    HW270101   7.138   8.549   4.752
21752SOL     OW70102   6.501   7.537   5.126
21752SOL    HW170103   6.526   7.517   5.031
21752SOL    HW270104   6.573   7.593   5.168
21753SOL     OW70105   6.566   8.564   5.443
21753SOL    HW170106   6.467   8.570   5.453
21753SOL    HW270107   6.589   8.484   5.387
21754SOL     OW70108   6.291   8.498   4.092
21754SOL    HW170109   6.277   8.505   4.191
21754SOL    HW270110   6.375   8.447   4.074
21755SOL     OW70111   5.996   8.261   4.975
21755SOL    HW170112   6.082   8.273   5.025
21755SOL    HW270113   5.954   8.174   5.002
21756SOL     OW70114   6.860   7.834   4.986
21756SOL    HW170115   6.881   7.908   5.050
21756SOL    HW270116   6.771   7.851   4.943
21757SOL     OW70117   5.953   8.548   4.225
21757SOL    HW170118   5.946   8.631   4.169
21757SOL    HW270119   5.957   8.468   4.165
21758SOL     OW70120   6.152   7.985   4.589
21758SOL    HW170121   6.164   8.051   4.515
21758SOL    HW270122   6.198   8.019   4.672
21759SOL     OW70123   6.838   8.796   4.112
21759SOL    HW170124   6.888   8.873   4.152
21759SOL    HW270125   6.743   8.798   4.144
21760SOL     OW70126   6.858   8.893   4.866
21760SOL    HW170127   6.905   8.906   4.953
21760SOL    HW270128   6.792   8.819   4.875
21761SOL     OW70129   7.168   8.087   4.196
21761SOL    HW170130   7.137   8.148   4.269
21761SOL    HW270131   7.218   8.139   4.127
21762SOL     OW70132   5.988   8.199   5.322
21762SOL    HW170133   6.056   8.254   5.275
21762SOL    HW270134   6.028   8.111   5.349
21763SOL     OW70135   7.173   8.227   5.394
21763SOL    HW170136   7.081   8.265   5.389
21763SOL    HW270137   7.233   8.274   5.329
21764SOL     OW70138   6.599   7.553   5.494
21764SOL    HW170139   6.605   7.638   5.442
21764SOL    HW270140   6.631   7.477   5.437
21765SOL     OW70141   6.090   7.498   5.464
21765SOL    HW170142   6.048   7.441   5.394
21765SOL    HW270143   6.024   7.567   5.496
21766SOL     OW70144   6.159   8.318   4.753
21766SOL    HW170145   6.203   8.407   4.744
21766SOL    HW270146   6.096   8.318   4.830
21767SOL     OW70147   6.795   7.973   3.999
21767SOL    HW170148   6.808   7.889   4.053
21767SOL    HW270149   6.766   8.047   4.059
21768SOL     OW70150   5.893   7.661   4.955
21768SOL    HW170151   5.870   7.698   5.045
21768SOL    HW270152   5.863   7.566   4.949
21769SOL     OW70153   5.623   8.758   5.006
21769SOL    HW170154   5.676   8.709   5.074
21769SOL    HW270155   5.645   8.856   5.011
21770SOL     OW70156   6.318   8.082   4.788
21770SOL    HW170157   6.377   8.056   4.712
21770SOL    HW270158   6.290   8.178   4.777
21771SOL     OW70159   7.314   8.383   5.578
21771SOL    HW170160   7.268   8.376   5.489
21771SOL    HW270161   7.252   8.427   5.644
21772SOL     OW70162   5.893   7.511   4.342
21772SOL    HW170163   5.882   7.605   4.375
21772SOL    HW270164   5.888   7.448   4.419
21773SOL     OW70165   7.208   7.815   4.098
21773SOL    HW170166   7.210   7.739   4.162
21773SOL    HW270167   7.160   7.892   4.138
21774SOL     OW70168   6.566   9.021   5.424
21774SOL    HW170169   6.546   9.065   5.336
21774SOL    HW270170   6.605   8.930   5.408
21775SOL     OW70171   7.445   8.966   5.329
21775SOL    HW170172   7.459   8.993   5.234
21775SOL    HW270173   7.528   8.988   5.382
21776SOL     OW70174   5.936   8.346   5.528
21776SOL    HW170175   6.012   8.390   5.576
21776SOL    HW270176   5.971   8.299   5.446
21777SOL     OW70177   7.126   7.722   3.849
21777SOL    HW170178   7.065   7.647   3.872
21777SOL    HW270179   7.148   7.774   3.932
21778SOL     OW70180   6.889   8.286   3.766
21778SOL    HW170181   6.923   8.193   3.781
21778SOL    HW270182   6.907   8.313   3.671
21779SOL     OW70183   6.654   8.781   4.573
21779SOL    HW170184   6.661   8.697   4.518
21779SOL    HW270185   6.716   8.850   4.537
21780SOL     OW70186   5.905   8.258   4.673
21780SOL    HW170187   5.998   8.294   4.678
21780SOL    HW270188   5.899   8.173   4.725
21781SOL     OW70189   5.925   7.957   4.730
21781SOL    HW170190   5.873   7.874   4.713
21781SOL    HW270191   6.002   7.962   4.666
21782SOL     OW70192   6.724   7.828   5.402
21782SOL    HW170193   6.679   7.891   5.466
21782SOL    HW270194   6.817   7.859   5.385
21783SOL     OW70195   6.746   7.655   5.201
21783SOL    HW170196   6.746   7.719   5.278
21783SOL    HW270197   6.774   7.703   5.118
21784SOL     OW70198   5.594   8.774   3.924
21784SOL    HW170199   5.501   8.795   3.893
21784SOL    HW270200   5.604   8.675   3.937
21785SOL     OW70201   5.674   9.249   4.651
21785SOL    HW170202   5.632   9.163   4.624
21785SOL    HW270203   5.768   9.252   4.617
21786SOL     OW70204   6.090   9.016   4.634
21786SOL    HW170205   6.156   9.090   4.643
21786SOL    HW270206   6.134   8.937   4.592
21787SOL     OW70207   5.626   7.992   4.838
21787SOL    HW170208   5.711   7.959   4.797
21787SOL    HW270209   5.639   8.007   4.936
21788SOL     OW70210   5.775   7.968   5.446
21788SOL    HW170211   5.834   7.928   5.376
21788SOL    HW270212   5.717   8.039   5.405
21789SOL     OW70213   6.955   8.398   5.384
21789SOL    HW170214   6.994   8.487   5.404
21789SOL    HW270215   6.965   8.378   5.287
21790SOL     OW70216   6.401   8.020   4.049
21790SOL    HW170217   6.408   7.931   4.003
21790SOL    HW270218   6.307   8.054   4.041
21791SOL     OW70219   7.243   8.052   4.930
21791SOL    HW170220   7.205   7.983   4.992
21791SOL    HW270221   7.325   8.016   4.886
21792SOL     OW70222   5.838   9.012   5.468
21792SOL    HW170223   5.808   9.069   5.544
21792SOL    HW270224   5.831   8.915   5.494
21793SOL     OW70225   6.257   7.912   4.993
21793SOL    HW170226   6.223   7.823   4.963
21793SOL    HW270227   6.283   7.966   4.913
21794SOL     OW70228   6.516   9.126   5.189
21794SOL    HW170229   6.492   9.108   5.094
21794SOL    HW270230   6.546   9.220   5.199
21795SOL     OW70231   6.059   7.948   3.915
21795SOL    HW170232   6.120   8.028   3.919
21795SOL    HW270233   5.964   7.979   3.922
21796SOL     OW70234   5.745   8.585   5.190
21796SOL    HW170235   5.767   8.524   5.266
21796SOL    HW270236   5.755   8.536   5.104
21797SOL     OW70237   6.933   8.507   4.958
21797SOL    HW170238   6.957   8.444   4.884
21797SOL    HW270239   6.843   8.547   4.940
21798SOL     OW70240   6.888   8.303   4.033
21798SOL    HW170241   6.802   8.272   4.075
21798SOL    HW270242   6.884   8.289   3.934
21799SOL     OW70243   7.345   9.195   4.878
21799SOL    HW170244   7.406   9.225   4.805
21799SOL    HW270245   7.307   9.106   4.856
21800SOL     OW70246   6.838   9.179   4.852
21800SOL    HW170247   6.922   9.184   4.798
21800SOL    HW270248   6.815   9.083   4.870
21801SOL     OW70249   5.669   8.706   4.746
21801SOL    HW170250   5.664   8.705   4.846
21801SOL    HW270251   5.586   8.665   4.708
21802SOL     OW70252   6.274   9.110   5.440
21802SOL    HW170253   6.218   9.191   5.449
21802SOL    HW270254   6.326   9.114   5.354
21803SOL     OW70255   7.312   7.583   4.247
21803SOL    HW170256   7.385   7.566   4.180
21803SOL    HW270257   7.281   7.496   4.285
21804SOL     OW70258   6.974   9.021   4.201
21804SOL    HW170259   7.041   9.033   4.127
21804SOL    HW270260   6.934   9.110   4.224
21805SOL     OW70261   5.716   9.242   5.575
21805SOL    HW170262   5.675   9.168   5.628
21805SOL    HW270263   5.780   9.293   5.633
21806SOL     OW70264   6.866   8.375   4.396
21806SOL    HW170265   6.926   8.294   4.398
21806SOL    HW270266   6.906   8.444   4.336
21807SOL     OW70267   6.416   8.721   5.146
21807SOL    HW170268   6.411   8.754   5.241
21807SOL    HW270269   6.330   8.740   5.100
21808SOL     OW70270   6.258   9.064   3.878
21808SOL    HW170271   6.267   9.074   3.779
21808SOL    HW270272   6.218   8.975   3.899
21809SOL     OW70273   7.236   9.168   5.118
21809SOL    HW170274   7.289   9.178   5.034
21809SOL    HW270275   7.209   9.258   5.152
21810SOL     OW70276   7.427   7.623   4.687
21810SOL    HW170277   7.466   7.538   4.651
21810SOL    HW270278   7.329   7.625   4.668
21811SOL     OW70279   5.849   7.774   4.444
21811SOL    HW170280   5.770   7.825   4.410
21811SOL    HW270281   5.840   7.759   4.542
21812SOL     OW70282   6.780   9.060   3.755
21812SOL    HW170283   6.786   8.967   3.792
21812SOL    HW270284   6.721   9.060   3.675
21813SOL     OW70285   6.408   8.450   5.096
21813SOL    HW170286   6.448   8.449   5.004
21813SOL    HW270287   6.418   8.542   5.136
21814SOL     OW70288   6.502   8.358   4.015
21814SOL    HW170289   6.565   8.396   3.947
21814SOL    HW270290   6.542   8.275   4.054
21815SOL     OW70291   7.090   9.055   3.768
21815SOL    HW170292   6.998   9.092   3.775
21815SOL    HW270293   7.128   9.075   3.678
21816SOL     OW70294   7.200   8.740   5.013
21816SOL    HW170295   7.260   8.743   5.093
21816SOL    HW270296   7.125   8.804   5.026
21817SOL     OW70297   6.625   8.546   4.420
21817SOL    HW170298   6.555   8.499   4.474
21817SOL    HW270299   6.684   8.478   4.377
21818SOL     OW70300   6.600   7.684   4.695
21818SOL    HW170301   6.592   7.648   4.602
21818SOL    HW270302   6.598   7.608   4.760
21819SOL     OW70303   6.176   8.935   4.215
21819SOL    HW170304   6.218   8.877   4.145
21819SOL    HW270305   6.132   9.014   4.171
21820SOL     OW70306   7.295   7.833   5.105
21820SOL    HW170307   7.368   7.902   5.109
21820SOL    HW270308   7.323   7.758   5.046
21821SOL     OW70309   5.841   8.796   4.014
21821SOL    HW170310   5.745   8.797   3.987
21821SOL    HW270311   5.853   8.849   4.098
21822SOL     OW70312   5.691   8.461   5.450
21822SOL    HW170313   5.614   8.428   5.504
21822SOL    HW270314   5.776   8.431   5.492
21823SOL     OW70315   6.258   7.651   5.213
21823SOL    HW170316   6.348   7.635   5.173
21823SOL    HW270317   6.266   7.656   5.312
21824SOL     OW70318   5.661   7.793   3.757
21824SOL    HW170319   5.569   7.765   3.728
21824SOL    HW270320   5.692   7.870   3.701
21825SOL     OW70321   7.026   8.304   5.122
21825SOL    HW170322   6.969   8.356   5.059
21825SOL    HW270323   7.122   8.316   5.098
21826SOL     OW70324   5.658   7.614   4.042
21826SOL    HW170325   5.641   7.697   3.988
21826SOL    HW270326   5.748   7.577   4.020
21827SOL     OW70327   6.769   8.783   3.843
21827SOL    HW170328   6.670   8.772   3.845
21827SOL    HW270329   6.803   8.798   3.936
21828SOL     OW70330   6.199   8.290   5.155
21828SOL    HW170331   6.255   8.371   5.138
21828SOL    HW270332   6.258   8.210   5.158
21829SOL     OW70333   7.079   9.215   4.683
21829SOL    HW170334   7.112   9.279   4.614
21829SOL    HW270335   7.145   9.209   4.758
21830SOL     OW70336   6.302   8.013   5.432
21830SOL    HW170337   6.321   8.078   5.506
21830SOL    HW270338   6.362   7.933   5.441
21831SOL     OW70339   7.036   8.668   5.357
21831SOL    HW170340   7.027   8.658   5.456
21831SOL    HW270341   7.132   8.661   5.331
21832SOL     OW70342   7.260   8.331   4.978
21832SOL    HW170343   7.233   8.242   4.941
21832SOL    HW270344   7.261   8.399   4.905
21833SOL     OW70345   6.811   7.773   4.173
21833SOL    HW170346   6.876   7.699   4.162
21833SOL    HW270347   6.831   7.823   4.257
21834SOL     OW70348   6.180   8.193   4.376
21834SOL    HW170349   6.230   8.278   4.357
21834SOL    HW270350   6.092   8.195   4.328
21835SOL     OW70351   7.363   7.790   5.366
21835SOL    HW170352   7.346   7.821   5.272
21835SOL    HW270353   7.279   7.753   5.404
21836SOL     OW70354   7.316   8.382   5.241
21836SOL    HW170355   7.354   8.473   5.256
21836SOL    HW270356   7.308   8.365   5.142
21837SOL     OW70357   6.445   8.822   3.740
21837SOL    HW170358   6.399   8.837   3.828
21837SOL    HW270359   6.489   8.907   3.710
21838SOL     OW70360   6.247   9.238   4.677
21838SOL    HW170361   6.201   9.326   4.664
21838SOL    HW270362   6.346   9.250   4.670
21839SOL     OW70363   6.669   8.432   3.811
21839SOL    HW170364   6.646   8.485   3.729
21839SOL    HW270365   6.750   8.376   3.792
21840SOL     OW70366   7.447   9.017   4.575
21840SOL    HW170367   7.376   9.005   4.505
21840SOL    HW270368   7.448   8.938   4.635
21841SOL     OW70369   5.807   8.762   5.568
21841SOL    HW170370   5.742   8.689   5.547
21841SOL    HW270371   5.811   8.776   5.666
21842SOL     OW70372   5.665   8.688   4.377
21842SOL    HW170373   5.664   8.641   4.465
21842SOL    HW270374   5.747   8.660   4.326
21843SOL     OW70375   6.258   8.839   5.348
21843SOL    HW170376   6.180   8.789   5.386
21843SOL    HW270377   6.255   8.934   5.379
21844SOL     OW70378   7.410   7.640   4.951
21844SOL    HW170379   7.406   7.550   4.995
21844SOL    HW270380   7.413   7.629   4.852
21845SOL     OW70381   6.014   7.872   4.244
21845SOL    HW170382   6.044   7.800   4.182
21845SOL    HW270383   5.975   7.832   4.327
21846SOL     OW70384   7.291   8.935   4.828
21846SOL    HW170385   7.198   8.910   4.801
21846SOL    HW270386   7.317   8.885   4.910
21847SOL     OW70387   5.903   7.995   5.004
21847SOL    HW170388   5.941   7.936   5.076
21847SOL    HW270389   5.943   7.969   4.916
21848SOL     OW70390   6.398   9.034   4.411
21848SOL    HW170391   6.430   9.044   4.317
21848SOL    HW270392   6.319   8.972   4.413
21849SOL     OW70393   7.010   7.662   4.836
21849SOL    HW170394   7.062   7.597   4.891
21849SOL    HW270395   6.961   7.725   4.897
21850SOL     OW70396   6.587   7.482   4.878
21850SOL    HW170397   6.524   7.410   4.847
21850SOL    HW270398   6.680   7.446   4.878
21851SOL     OW70399   6.356   8.778   4.025
21851SOL    HW170400   6.310   8.691   4.042
21851SOL    HW270401   6.447   8.775   4.066
21852SOL     OW70402   6.938   7.500   3.892
21852SOL    HW170403   6.973   7.459   3.808
21852SOL    HW270404   6.848   7.462   3.912
21853SOL     OW70405   7.179   7.669   4.606
21853SOL    HW170406   7.095   7.668   4.660
21853SOL    HW270407   7.181   7.752   4.550
21854SOL     OW70408   5.625   8.525   4.024
21854SOL    HW170409   5.724   8.514   4.015
21854SOL    HW270410   5.585   8.439   4.056
21855SOL     OW70411   6.461   9.094   4.061
21855SOL    HW170412   6.384   9.059   4.007
21855SOL    HW270413   6.429   9.165   4.123
21856SOL     OW70414   5.816   8.076   5.699
21856SOL    HW170415   5.723   8.074   5.736
21856SOL    HW270416   5.817   8.037   5.607
21857SOL     OW70417   5.811   7.723   6.582
21857SOL    HW170418   5.846   7.706   6.674
21857SOL    HW270419   5.723   7.678   6.570
21858SOL     OW70420   5.605   7.816   6.233
21858SOL    HW170421   5.523   7.859   6.272
21858SOL    HW270422   5.577   7.743   6.170
21859SOL     OW70423   6.155   8.723   6.751
21859SOL    HW170424   6.062   8.716   6.714
21859SOL    HW270425   6.166   8.812   6.795
21860SOL     OW70426   7.141   8.959   6.289
21860SOL    HW170427   7.084   8.943   6.370
21860SOL    HW270428   7.082   8.969   6.209
21861SOL     OW70429   6.721   8.151   6.303
21861SOL    HW170430   6.778   8.229   6.278
21861SOL    HW270431   6.661   8.177   6.379
21862SOL     OW70432   7.341   8.055   5.817
21862SOL    HW170433   7.329   8.042   5.718
21862SOL    HW270434   7.311   7.974   5.866
21863SOL     OW70435   6.436   8.246   7.409
21863SOL    HW170436   6.432   8.322   7.474
21863SOL    HW270437   6.458   8.282   7.318
21864SOL     OW70438   6.271   8.460   6.251
21864SOL    HW170439   6.340   8.444   6.321
21864SOL    HW270440   6.198   8.517   6.289
21865SOL     OW70441   6.272   8.609   7.389
21865SOL    HW170442   6.332   8.688   7.403
21865SOL    HW270443   6.186   8.640   7.348
21866SOL     OW70444   5.921   8.883   6.647
21866SOL    HW170445   5.843   8.852   6.594
21866SOL    HW270446   5.979   8.941   6.590
21867SOL     OW70447   7.046   8.953   6.925
21867SOL    HW170448   7.070   9.047   6.951
21867SOL    HW270449   7.030   8.899   7.007
21868SOL     OW70450   6.024   7.840   7.085
21868SOL    HW170451   6.106   7.784   7.094
21868SOL    HW270452   5.943   7.782   7.089
21869SOL     OW70453   7.189   7.895   6.323
21869SOL    HW170454   7.115   7.941   6.273
21869SOL    HW270455   7.240   7.963   6.376
21870SOL     OW70456   5.817   9.161   6.069
21870SOL    HW170457   5.851   9.238   6.123
21870SOL    HW270458   5.861   9.161   5.979
21871SOL     OW70459   6.713   8.789   7.276
21871SOL    HW170460   6.760   8.789   7.364
21871SOL    HW270461   6.665   8.702   7.265
21872SOL     OW70462   5.816   8.882   6.124
21872SOL    HW170463   5.790   8.978   6.124
21872SOL    HW270464   5.745   8.828   6.169
21873SOL     OW70465   5.826   8.539   6.472
21873SOL    HW170466   5.840   8.455   6.524
21873SOL    HW270467   5.771   8.603   6.527
21874SOL     OW70468   6.206   9.234   7.025
21874SOL    HW170469   6.114   9.217   7.060
21874SOL    HW270470   6.234   9.326   7.051
21875SOL     OW70471   6.192   8.412   5.709
21875SOL    HW170472   6.199   8.496   5.655
21875SOL    HW270473   6.238   8.425   5.797
21876SOL     OW70474   7.180   7.562   7.066
21876SOL    HW170475   7.162   7.629   6.994
21876SOL    HW270476   7.177   7.608   7.155
21877SOL     OW70477   5.708   8.091   6.149
21877SOL    HW170478   5.663   8.003   6.166
21877SOL    HW270479   5.707   8.145   6.233
21878SOL     OW70480   7.428   9.215   5.945
21878SOL    HW170481   7.482   9.186   6.025
21878SOL    HW270482   7.458   9.305   5.916
21879SOL     OW70483   5.613   9.044   5.703
21879SOL    HW170484   5.594   8.948   5.724
21879SOL    HW270485   5.580   9.102   5.778
21880SOL     OW70486   7.275   8.370   6.198
21880SOL    HW170487   7.370   8.341   6.206
21880SOL    HW270488   7.267   8.435   6.123
21881SOL     OW70489   7.227   8.556   6.018
21881SOL    HW170490   7.313   8.558   5.966
21881SOL    HW270491   7.241   8.603   6.106
21882SOL     OW70492   6.199   8.813   6.312
21882SOL    HW170493   6.150   8.726   6.321
21882SOL    HW270494   6.176   8.856   6.225
21883SOL     OW70495   6.879   8.676   7.009
21883SOL    HW170496   6.916   8.603   6.951
21883SOL    HW270497   6.931   8.681   7.094
21884SOL     OW70498   6.395   7.452   6.088
21884SOL    HW170499   6.435   7.543   6.079
21884SOL    HW270500   6.295   7.460   6.094
21885SOL     OW70501   7.111   8.447   5.776
21885SOL    HW170502   7.048   8.371   5.789
21885SOL    HW270503   7.159   8.465   5.862
21886SOL     OW70504   6.773   9.240   7.202
21886SOL    HW170505   6.797   9.300   7.126
21886SOL    HW270506   6.780   9.145   7.172
21887SOL     OW70507   5.903   7.699   7.387
21887SOL    HW170508   5.974   7.770   7.393
21887SOL    HW270509   5.815   7.738   7.415
21888SOL     OW70510   7.253   9.162   6.158
21888SOL    HW170511   7.212   9.139   6.070
21888SOL    HW270512   7.235   9.088   6.223
21889SOL     OW70513   6.184   8.177   5.856
21889SOL    HW170514   6.208   8.246   5.788
21889SOL    HW270515   6.106   8.210   5.910
21890SOL     OW70516   7.162   9.110   5.893
21890SOL    HW170517   7.251   9.156   5.896
21890SOL    HW270518   7.141   9.086   5.798
21891SOL     OW70519   6.393   8.053   7.051
21891SOL    HW170520   6.346   8.050   7.140
21891SOL    HW270521   6.342   7.998   6.985
21892SOL     OW70522   6.980   7.917   7.260
21892SOL    HW170523   6.960   7.960   7.348
21892SOL    HW270524   7.058   7.855   7.269
21893SOL     OW70525   6.559   8.338   7.158
21893SOL    HW170526   6.605   8.254   7.129
21893SOL    HW270527   6.503   8.372   7.083
21894SOL     OW70528   6.577   7.858   6.828
21894SOL    HW170529   6.500   7.892   6.882
21894SOL    HW270530   6.543   7.807   6.749
21895SOL     OW70531   6.627   8.149   6.015
21895SOL    HW170532   6.653   8.145   6.111
21895SOL    HW270533   6.542   8.098   6.001
21896SOL     OW70534   5.662   8.259   6.375
21896SOL    HW170535   5.761   8.247   6.384
21896SOL    HW270536   5.638   8.354   6.396
21897SOL     OW70537   6.451   7.796   5.781
21897SOL    HW170538   6.510   7.859   5.732
21897SOL    HW270539   6.470   7.702   5.752
21898SOL     OW70540   7.305   8.033   7.417
21898SOL    HW170541   7.279   8.122   7.381
21898SOL    HW270542   7.303   7.965   7.344
21899SOL     OW70543   6.948   8.592   6.131
21899SOL    HW170544   7.031   8.563   6.083
21899SOL    HW270545   6.899   8.659   6.075
21900SOL     OW70546   6.136   7.644   6.471
21900SOL    HW170547   6.131   7.639   6.571
21900SOL    HW270548   6.138   7.740   6.442
21901SOL     OW70549   6.594   8.904   6.063
21901SOL    HW170550   6.548   8.976   6.011
21901SOL    HW270551   6.590   8.924   6.161
21902SOL     OW70552   5.937   9.249   6.439
21902SOL    HW170553   5.987   9.163   6.445
21902SOL    HW270554   6.002   9.326   6.436
21903SOL     OW70555   7.381   8.514   6.459
21903SOL    HW170556   7.319   8.499   6.383
21903SOL    HW270557   7.329   8.525   6.544
21904SOL     OW70558   6.813   8.998   7.092
21904SOL    HW170559   6.819   8.921   7.156
21904SOL    HW270560   6.761   8.972   7.012
21905SOL     OW70561   5.907   8.391   5.828
21905SOL    HW170562   5.989   8.430   5.786
21905SOL    HW270563   5.880   8.309   5.779
21906SOL     OW70564   7.044   8.183   6.314
21906SOL    HW170565   7.039   8.118   6.389
21906SOL    HW270566   7.124   8.242   6.327
21907SOL     OW70567   6.047   8.714   7.313
21907SOL    HW170568   5.997   8.715   7.227
21907SOL    HW270569   5.984   8.696   7.389
21908SOL     OW70570   6.697   9.224   5.823
21908SOL    HW170571   6.637   9.162   5.873
21908SOL    HW270572   6.728   9.180   5.738
21909SOL     OW70573   5.788   7.733   7.084
21909SOL    HW170574   5.708   7.793   7.071
21909SOL    HW270575   5.778   7.684   7.170
21910SOL     OW70576   7.218   8.825   5.667
21910SOL    HW170577   7.186   8.919   5.657
21910SOL    HW270578   7.142   8.762   5.655
21911SOL     OW70579   6.050   9.191   5.909
21911SOL    HW170580   6.083   9.230   5.995
21911SOL    HW270581   6.126   9.184   5.844
21912SOL     OW70582   6.986   7.555   6.012
21912SOL    HW170583   6.962   7.518   5.922
21912SOL    HW270584   7.085   7.571   6.016
21913SOL     OW70585   5.835   9.233   6.827
21913SOL    HW170586   5.892   9.168   6.877
21913SOL    HW270587   5.819   9.200   6.734
21914SOL     OW70588   6.526   9.146   6.490
21914SOL    HW170589   6.606   9.089   6.511
21914SOL    HW270590   6.477   9.106   6.413
21915SOL     OW70591   5.968   8.148   6.066
21915SOL    HW170592   6.013   8.058   6.063
21915SOL    HW270593   5.874   8.137   6.099
21916SOL     OW70594   7.133   7.670   7.315
21916SOL    HW170595   7.128   7.707   7.407
21916SOL    HW270596   7.061   7.601   7.303
21917SOL     OW70597   6.200   7.570   5.703
21917SOL    HW170598   6.298   7.548   5.710
21917SOL    HW270599   6.169   7.553   5.610
21918SOL     OW70600   6.367   7.712   7.335
21918SOL    HW170601   6.434   7.651   7.378
21918SOL    HW270602   6.294   7.731   7.400
21919SOL     OW70603   6.474   8.962   6.781
21919SOL    HW170604   6.451   8.937   6.687
21919SOL    HW270605   6.535   8.893   6.820
21920SOL     OW70606   6.937   8.038   7.019
21920SOL    HW170607   6.965   7.995   7.104
21920SOL    HW270608   6.962   8.134   7.020
21921SOL     OW70609   6.389   8.850   6.510
21921SOL    HW170610   6.479   8.864   6.468
21921SOL    HW270611   6.318   8.852   6.439
21922SOL     OW70612   6.508   7.951   6.485
21922SOL    HW170613   6.483   7.942   6.389
21922SOL    HW270614   6.556   7.869   6.516
21923SOL     OW70615   6.125   7.512   6.098
21923SOL    HW170616   6.044   7.513   6.156
21923SOL    HW270617   6.128   7.595   6.043
21924SOL     OW70618   5.883   7.483   5.757
21924SOL    HW170619   5.932   7.567   5.736
21924SOL    HW270620   5.945   7.418   5.802
21925SOL     OW70621   6.521   7.684   6.066
21925SOL    HW170622   6.473   7.725   5.988
21925SOL    HW270623   6.620   7.682   6.047
21926SOL     OW70624   6.662   8.131   7.050
21926SOL    HW170625   6.582   8.070   7.053
21926SOL    HW270626   6.743   8.078   7.026
21927SOL     OW70627   6.813   9.018   6.379
21927SOL    HW170628   6.834   9.092   6.314
21927SOL    HW270629   6.881   9.018   6.452
21928SOL     OW70630   6.045   8.600   6.327
21928SOL    HW170631   5.974   8.573   6.392
21928SOL    HW270632   6.019   8.572   6.234
21929SOL     OW70633   6.857   9.245   6.177
21929SOL    HW170634   6.901   9.309   6.113
21929SOL    HW270635   6.807   9.297   6.247
21930SOL     OW70636   6.618   7.997   5.602
21930SOL    HW170637   6.577   8.079   5.563
21930SOL    HW270638   6.682   8.023   5.675
21931SOL     OW70639   6.147   7.670   6.733
21931SOL    HW170640   6.185   7.586   6.770
21931SOL    HW270641   6.059   7.689   6.777
21932SOL     OW70642   6.452   7.902   6.228
21932SOL    HW170643   6.420   7.974   6.166
21932SOL    HW270644   6.476   7.821   6.175
21933SOL     OW70645   6.603   7.487   6.339
21933SOL    HW170646   6.531   7.492   6.270
21933SOL    HW270647   6.579   7.418   6.408
21934SOL     OW70648   7.015   8.621   6.453
21934SOL    HW170649   6.960   8.537   6.446
21934SOL    HW270650   7.041   8.650   6.361
21935SOL     OW70651   7.052   8.038   6.578
21935SOL    HW170652   7.022   7.943   6.585
21935SOL    HW270653   7.125   8.054   6.644
21936SOL     OW70654   7.443   8.281   5.963
21936SOL    HW170655   7.485   8.217   6.027
21936SOL    HW270656   7.405   8.230   5.885
21937SOL     OW70657   6.074   8.833   5.760
21937SOL    HW170658   5.987   8.818   5.807
21937SOL    HW270659   6.057   8.859   5.665
21938SOL     OW70660   7.250   8.728   6.243
21938SOL    HW170661   7.349   8.736   6.257
21938SOL    HW270662   7.205   8.812   6.274
21939SOL     OW70663   6.976   8.023   5.664
21939SOL    HW170664   6.922   8.002   5.745
21939SOL    HW270665   7.067   7.982   5.673
21940SOL     OW70666   6.113   7.704   5.914
21940SOL    HW170667   6.140   7.645   5.839
21940SOL    HW270668   6.113   7.799   5.883
21941SOL     OW70669   7.340   8.671   7.174
21941SOL    HW170670   7.431   8.632   7.161
21941SOL    HW270671   7.348   8.767   7.198
21942SOL     OW70672   6.650   8.795   6.926
21942SOL    HW170673   6.570   8.772   6.981
21942SOL    HW270674   6.733   8.769   6.975
21943SOL     OW70675   7.178   9.077   7.211
21943SOL    HW170676   7.205   9.111   7.121
21943SOL    HW270677   7.257   9.039   7.257
21944SOL     OW70678   6.697   8.643   6.686
21944SOL    HW170679   6.657   8.687   6.767
21944SOL    HW270680   6.656   8.680   6.603
21945SOL     OW70681   7.224   8.547   6.665
21945SOL    HW170682   7.229   8.628   6.724
21945SOL    HW270683   7.138   8.549   6.614
21946SOL     OW70684   6.501   7.537   6.988
21946SOL    HW170685   6.526   7.517   6.893
21946SOL    HW270686   6.573   7.593   7.030
21947SOL     OW70687   6.566   8.564   7.305
21947SOL    HW170688   6.467   8.570   7.315
21947SOL    HW270689   6.589   8.484   7.249
21948SOL     OW70690   6.291   8.498   5.954
21948SOL    HW170691   6.277   8.505   6.053
21948SOL    HW270692   6.375   8.447   5.936
21949SOL     OW70693   5.996   8.261   6.837
21949SOL    HW170694   6.082   8.273   6.887
21949SOL    HW270695   5.954   8.174   6.864
21950SOL     OW70696   6.860   7.834   6.848
21950SOL    HW170697   6.881   7.908   6.912
21950SOL    HW270698   6.771   7.851   6.805
21951SOL     OW70699   5.650   9.012   6.917
21951SOL    HW170700   5.604   9.094   6.883
21951SOL    HW270701   5.748   9.031   6.926
21952SOL     OW70702   5.953   8.548   6.087
21952SOL    HW170703   5.946   8.631   6.031
21952SOL    HW270704   5.957   8.468   6.027
21953SOL     OW70705   6.152   7.985   6.451
21953SOL    HW170706   6.164   8.051   6.377
21953SOL    HW270707   6.198   8.019   6.534
21954SOL     OW70708   6.838   8.796   5.974
21954SOL    HW170709   6.888   8.873   6.014
21954SOL    HW270710   6.743   8.798   6.006
21955SOL     OW70711   6.858   8.893   6.728
21955SOL    HW170712   6.905   8.906   6.815
21955SOL    HW270713   6.792   8.819   6.737
21956SOL     OW70714   7.168   8.087   6.058
21956SOL    HW170715   7.137   8.148   6.131
21956SOL    HW270716   7.218   8.139   5.989
21957SOL     OW70717   5.940   8.958   6.915
21957SOL    HW170718   5.919   8.914   6.828
21957SOL    HW270719   6.037   8.984   6.918
21958SOL     OW70720   5.988   8.199   7.184
21958SOL    HW170721   6.056   8.254   7.137
21958SOL    HW270722   6.028   8.111   7.211
21959SOL     OW70723   7.173   8.227   7.256
21959SOL    HW170724   7.081   8.265   7.251
21959SOL    HW270725   7.233   8.274   7.191
21960SOL     OW70726   6.599   7.553   7.356
21960SOL    HW170727   6.605   7.638   7.304
21960SOL    HW270728   6.631   7.477   7.299
21961SOL     OW70729   6.090   7.498   7.326
21961SOL    HW170730   6.048   7.441   7.256
21961SOL    HW270731   6.024   7.567   7.358
21962SOL     OW70732   6.159   8.318   6.615
21962SOL    HW170733   6.203   8.407   6.606
21962SOL    HW270734   6.096   8.318   6.692
21963SOL     OW70735   6.946   8.310   6.631
21963SOL    HW170736   6.871   8.310   6.565
21963SOL    HW270737   6.983   8.218   6.640
21964SOL     OW70738   6.795   7.973   5.861
21964SOL    HW170739   6.808   7.889   5.915
21964SOL    HW270740   6.766   8.047   5.921
21965SOL     OW70741   5.893   7.661   6.817
21965SOL    HW170742   5.870   7.698   6.907
21965SOL    HW270743   5.863   7.566   6.811
21966SOL     OW70744   5.623   8.758   6.868
21966SOL    HW170745   5.676   8.709   6.936
21966SOL    HW270746   5.645   8.856   6.873
21967SOL     OW70747   6.318   8.082   6.650
21967SOL    HW170748   6.377   8.056   6.574
21967SOL    HW270749   6.290   8.178   6.639
21968SOL     OW70750   7.314   8.383   7.440
21968SOL    HW170751   7.268   8.376   7.351
21968SOL    HW270752   7.252   8.427   7.506
21969SOL     OW70753   5.893   7.511   6.204
21969SOL    HW170754   5.882   7.605   6.237
21969SOL    HW270755   5.888   7.448   6.281
21970SOL     OW70756   7.208   7.815   5.960
21970SOL    HW170757   7.210   7.739   6.024
21970SOL    HW270758   7.160   7.892   6.000
21971SOL     OW70759   6.609   8.214   6.552
21971SOL    HW170760   6.624   8.235   6.648
21971SOL    HW270761   6.579   8.119   6.543
21972SOL     OW70762   6.566   9.021   7.286
21972SOL    HW170763   6.546   9.065   7.198
21972SOL    HW270764   6.605   8.930   7.270
21973SOL     OW70765   7.126   7.722   5.711
21973SOL    HW170766   7.065   7.647   5.734
21973SOL    HW270767   7.148   7.774   5.794
21974SOL     OW70768   6.889   8.286   5.628
21974SOL    HW170769   6.923   8.193   5.643
21974SOL    HW270770   6.907   8.313   5.533
21975SOL     OW70771   6.654   8.781   6.435
21975SOL    HW170772   6.661   8.697   6.380
21975SOL    HW270773   6.716   8.850   6.399
21976SOL     OW70774   5.905   8.258   6.535
21976SOL    HW170775   5.998   8.294   6.540
21976SOL    HW270776   5.899   8.173   6.587
21977SOL     OW70777   5.925   7.957   6.592
21977SOL    HW170778   5.873   7.874   6.575
21977SOL    HW270779   6.002   7.962   6.528
21978SOL     OW70780   6.724   7.828   7.264
21978SOL    HW170781   6.679   7.891   7.328
21978SOL    HW270782   6.817   7.859   7.247
21979SOL     OW70783   6.746   7.655   7.063
21979SOL    HW170784   6.746   7.719   7.140
21979SOL    HW270785   6.774   7.703   6.980
21980SOL     OW70786   5.594   8.774   5.786
21980SOL    HW170787   5.501   8.795   5.755
21980SOL    HW270788   5.604   8.675   5.799
21981SOL     OW70789   5.674   9.249   6.513
21981SOL    HW170790   5.632   9.163   6.486
21981SOL    HW270791   5.768   9.252   6.479
21982SOL     OW70792   6.090   9.016   6.496
21982SOL    HW170793   6.156   9.090   6.505
21982SOL    HW270794   6.134   8.937   6.454
21983SOL     OW70795   6.588   8.244   6.824
21983SOL    HW170796   6.629   8.212   6.910
21983SOL    HW270797   6.492   8.217   6.821
21984SOL     OW70798   5.626   7.992   6.700
21984SOL    HW170799   5.711   7.959   6.659
21984SOL    HW270800   5.639   8.007   6.798
21985SOL     OW70801   6.955   8.398   7.246
21985SOL    HW170802   6.994   8.487   7.266
21985SOL    HW270803   6.965   8.378   7.149
21986SOL     OW70804   6.401   8.020   5.911
21986SOL    HW170805   6.408   7.931   5.865
21986SOL    HW270806   6.307   8.054   5.903
21987SOL     OW70807   7.243   8.052   6.792
21987SOL    HW170808   7.205   7.983   6.854
21987SOL    HW270809   7.325   8.016   6.748
21988SOL     OW70810   6.257   7.912   6.855
21988SOL    HW170811   6.223   7.823   6.825
21988SOL    HW270812   6.283   7.966   6.775
21989SOL     OW70813   6.516   9.126   7.051
21989SOL    HW170814   6.492   9.108   6.956
21989SOL    HW270815   6.546   9.220   7.061
21990SOL     OW70816   6.059   7.948   5.777
21990SOL    HW170817   6.120   8.028   5.781
21990SOL    HW270818   5.964   7.979   5.784
21991SOL     OW70819   5.745   8.585   7.052
21991SOL    HW170820   5.767   8.524   7.128
21991SOL    HW270821   5.755   8.536   6.966
21992SOL     OW70822   6.933   8.507   6.820
21992SOL    HW170823   6.957   8.444   6.746
21992SOL    HW270824   6.843   8.547   6.802
21993SOL     OW70825   6.888   8.303   5.895
21993SOL    HW170826   6.802   8.272   5.937
21993SOL    HW270827   6.884   8.289   5.796
21994SOL     OW70828   7.345   9.195   6.740
21994SOL    HW170829   7.406   9.225   6.667
21994SOL    HW270830   7.307   9.106   6.718
21995SOL     OW70831   6.838   9.179   6.714
21995SOL    HW170832   6.922   9.184   6.660
21995SOL    HW270833   6.815   9.083   6.732
21996SOL     OW70834   5.669   8.706   6.608
21996SOL    HW170835   5.664   8.705   6.708
21996SOL    HW270836   5.586   8.665   6.570
21997SOL     OW70837   6.274   9.110   7.302
21997SOL    HW170838   6.218   9.191   7.311
21997SOL    HW270839   6.326   9.114   7.216
21998SOL     OW70840   7.312   7.583   6.109
21998SOL    HW170841   7.385   7.566   6.042
21998SOL    HW270842   7.281   7.496   6.147
21999SOL     OW70843   6.974   9.021   6.063
21999SOL    HW170844   7.041   9.033   5.989
21999SOL    HW270845   6.934   9.110   6.086
22000SOL     OW70846   6.866   8.375   6.258
22000SOL    HW170847   6.926   8.294   6.260
22000SOL    HW270848   6.906   8.444   6.198
22001SOL     OW70849   6.416   8.721   7.008
22001SOL    HW170850   6.411   8.754   7.103
22001SOL    HW270851   6.330   8.740   6.962
22002SOL     OW70852   6.258   9.064   5.740
22002SOL    HW170853   6.267   9.074   5.641
22002SOL    HW270854   6.218   8.975   5.761
22003SOL     OW70855   7.236   9.168   6.980
22003SOL    HW170856   7.289   9.178   6.896
22003SOL    HW270857   7.209   9.258   7.014
22004SOL     OW70858   7.427   7.623   6.549
22004SOL    HW170859   7.466   7.538   6.513
22004SOL    HW270860   7.329   7.625   6.530
22005SOL     OW70861   5.849   7.774   6.306
22005SOL    HW170862   5.770   7.825   6.272
22005SOL    HW270863   5.840   7.759   6.404
22006SOL     OW70864   6.780   9.060   5.617
22006SOL    HW170865   6.786   8.967   5.654
22006SOL    HW270866   6.721   9.060   5.537
22007SOL     OW70867   6.408   8.450   6.958
22007SOL    HW170868   6.448   8.449   6.866
22007SOL    HW270869   6.418   8.542   6.998
22008SOL     OW70870   6.502   8.358   5.877
22008SOL    HW170871   6.565   8.396   5.809
22008SOL    HW270872   6.542   8.275   5.916
22009SOL     OW70873   7.090   9.055   5.630
22009SOL    HW170874   6.998   9.092   5.637
22009SOL    HW270875   7.128   9.075   5.540
22010SOL     OW70876   5.958   8.736   7.076
22010SOL    HW170877   5.945   8.829   7.042
22010SOL    HW270878   5.874   8.684   7.063
22011SOL     OW70879   7.200   8.740   6.875
22011SOL    HW170880   7.260   8.743   6.955
22011SOL    HW270881   7.125   8.804   6.888
22012SOL     OW70882   6.625   8.546   6.282
22012SOL    HW170883   6.555   8.499   6.336
22012SOL    HW270884   6.684   8.478   6.239
22013SOL     OW70885   6.600   7.684   6.557
22013SOL    HW170886   6.592   7.648   6.464
22013SOL    HW270887   6.598   7.608   6.622
22014SOL     OW70888   6.176   8.935   6.077
22014SOL    HW170889   6.218   8.877   6.007
22014SOL    HW270890   6.132   9.014   6.033
22015SOL     OW70891   7.295   7.833   6.967
22015SOL    HW170892   7.368   7.902   6.971
22015SOL    HW270893   7.323   7.758   6.908
22016SOL     OW70894   5.841   8.796   5.876
22016SOL    HW170895   5.745   8.797   5.849
22016SOL    HW270896   5.853   8.849   5.960
22017SOL     OW70897   5.661   7.793   5.619
22017SOL    HW170898   5.569   7.765   5.590
22017SOL    HW270899   5.692   7.870   5.563
22018SOL     OW70900   7.026   8.304   6.984
22018SOL    HW170901   6.969   8.356   6.921
22018SOL    HW270902   7.122   8.316   6.960
22019SOL     OW70903   5.658   7.614   5.904
22019SOL    HW170904   5.641   7.697   5.850
22019SOL    HW270905   5.748   7.577   5.882
22020SOL     OW70906   6.769   8.783   5.705
22020SOL    HW170907   6.670   8.772   5.707
22020SOL    HW270908   6.803   8.798   5.798
22021SOL     OW70909   6.199   8.290   7.017
22021SOL    HW170910   6.255   8.371   7.000
22021SOL    HW270911   6.258   8.210   7.020
22022SOL     OW70912   7.079   9.215   6.545
22022SOL    HW170913   7.112   9.279   6.476
22022SOL    HW270914   7.145   9.209   6.620
22023SOL     OW70915   6.302   8.013   7.294
22023SOL    HW170916   6.321   8.078   7.368
22023SOL    HW270917   6.362   7.933   7.303
22024SOL     OW70918   7.036   8.668   7.219
22024SOL    HW170919   7.027   8.658   7.318
22024SOL    HW270920   7.132   8.661   7.193
22025SOL     OW70921   5.976   9.189   7.146
22025SOL    HW170922   5.885   9.230   7.144
22025SOL    HW270923   5.969   9.095   7.178
22026SOL     OW70924   7.260   8.331   6.840
22026SOL    HW170925   7.233   8.242   6.803
22026SOL    HW270926   7.261   8.399   6.767
22027SOL     OW70927   6.811   7.773   6.035
22027SOL    HW170928   6.876   7.699   6.024
22027SOL    HW270929   6.831   7.823   6.119
22028SOL     OW70930   6.180   8.193   6.238
22028SOL    HW170931   6.230   8.278   6.219
22028SOL    HW270932   6.092   8.195   6.190
22029SOL     OW70933   7.363   7.790   7.228
22029SOL    HW170934   7.346   7.821   7.134
22029SOL    HW270935   7.279   7.753   7.266
22030SOL     OW70936   7.316   8.382   7.103
22030SOL    HW170937   7.354   8.473   7.118
22030SOL    HW270938   7.308   8.365   7.004
22031SOL     OW70939   6.445   8.822   5.602
22031SOL    HW170940   6.399   8.837   5.690
22031SOL    HW270941   6.489   8.907   5.572
22032SOL     OW70942   6.247   9.238   6.539
22032SOL    HW170943   6.201   9.326   6.526
22032SOL    HW270944   6.346   9.250   6.532
22033SOL     OW70945   6.445   8.404   6.447
22033SOL    HW170946   6.499   8.335   6.495
22033SOL    HW270947   6.413   8.473   6.513
22034SOL     OW70948   6.669   8.432   5.673
22034SOL    HW170949   6.646   8.485   5.591
22034SOL    HW270950   6.750   8.376   5.654
22035SOL     OW70951   7.447   9.017   6.437
22035SOL    HW170952   7.376   9.005   6.367
22035SOL    HW270953   7.448   8.938   6.497
22036SOL     OW70954   5.807   8.762   7.430
22036SOL    HW170955   5.742   8.689   7.409
22036SOL    HW270956   5.811   8.776   7.528
22037SOL     OW70957   5.665   8.688   6.239
22037SOL    HW170958   5.664   8.641   6.327
22037SOL    HW270959   5.747   8.660   6.188
22038SOL     OW70960   6.258   8.839   7.210
22038SOL    HW170961   6.180   8.789   7.248
22038SOL    HW270962   6.255   8.934   7.241
22039SOL     OW70963   7.410   7.640   6.813
22039SOL    HW170964   7.406   7.550   6.857
22039SOL    HW270965   7.413   7.629   6.714
22040SOL     OW70966   6.014   7.872   6.106
22040SOL    HW170967   6.044   7.800   6.044
22040SOL    HW270968   5.975   7.832   6.189
22041SOL     OW70969   7.291   8.935   6.690
22041SOL    HW170970   7.198   8.910   6.663
22041SOL    HW270971   7.317   8.885   6.772
22042SOL     OW70972   5.903   7.995   6.866
22042SOL    HW170973   5.941   7.936   6.938
22042SOL    HW270974   5.943   7.969   6.778
22043SOL     OW70975   6.398   9.034   6.273
22043SOL    HW170976   6.430   9.044   6.179
22043SOL    HW270977   6.319   8.972   6.275
22044SOL     OW70978   7.010   7.662   6.698
22044SOL    HW170979   7.062   7.597   6.753
22044SOL    HW270980   6.961   7.725   6.759
22045SOL     OW70981   6.587   7.482   6.740
22045SOL    HW170982   6.524   7.410   6.709
22045SOL    HW270983   6.680   7.446   6.740
22046SOL     OW70984   6.356   8.778   5.887
22046SOL    HW170985   6.310   8.691   5.904
22046SOL    HW270986   6.447   8.775   5.928
22047SOL     OW70987   6.204   9.015   6.870
22047SOL    HW170988   6.199   9.097   6.927
22047SOL    HW270989   6.293   9.012   6.825
22048SOL     OW70990   6.938   7.500   5.754
22048SOL    HW170991   6.973   7.459   5.670
22048SOL    HW270992   6.848   7.462   5.774
22049SOL     OW70993   6.886   7.901   6.277
22049SOL    HW170994   6.827   7.981   6.281
22049SOL    HW270995   6.901   7.866   6.370
22050SOL     OW70996   7.179   7.669   6.468
22050SOL    HW170997   7.095   7.668   6.522
22050SOL    HW270998   7.181   7.752   6.412
22051SOL     OW70999   5.625   8.525   5.886
22051SOL    HW171000   5.724   8.514   5.877
22051SOL    HW271001   5.585   8.439   5.918
22052SOL     OW71002   6.461   9.094   5.923
22052SOL    HW171003   6.384   9.059   5.869
22052SOL    HW271004   6.429   9.165   5.985
22053SOL     OW71005   5.811   7.723   8.444
22053SOL    HW171006   5.846   7.706   8.536
22053SOL    HW271007   5.723   7.678   8.432
22054SOL     OW71008   5.605   7.816   8.095
22054SOL    HW171009   5.523   7.859   8.134
22054SOL    HW271010   5.577   7.743   8.032
22055SOL     OW71011   6.155   8.723   8.613
22055SOL    HW171012   6.062   8.716   8.576
22055SOL    HW271013   6.166   8.812   8.657
22056SOL     OW71014   7.141   8.959   8.151
22056SOL    HW171015   7.084   8.943   8.232
22056SOL    HW271016   7.082   8.969   8.071
22057SOL     OW71017   6.721   8.151   8.165
22057SOL    HW171018   6.778   8.229   8.140
22057SOL    HW271019   6.661   8.177   8.241
22058SOL     OW71020   7.341   8.055   7.679
22058SOL    HW171021   7.329   8.042   7.580
22058SOL    HW271022   7.311   7.974   7.728
22059SOL     OW71023   6.354   8.592   8.471
22059SOL    HW171024   6.276   8.609   8.531
22059SOL    HW271025   6.388   8.679   8.435
22060SOL     OW71026   6.436   8.246   9.271
22060SOL    HW171027   6.432   8.322   9.336
22060SOL    HW271028   6.458   8.282   9.180
22061SOL     OW71029   6.271   8.460   8.113
22061SOL    HW171030   6.340   8.444   8.183
22061SOL    HW271031   6.198   8.517   8.151
22062SOL     OW71032   6.272   8.609   9.251
22062SOL    HW171033   6.332   8.688   9.265
22062SOL    HW271034   6.186   8.640   9.210
22063SOL     OW71035   5.921   8.883   8.509
22063SOL    HW171036   5.843   8.852   8.456
22063SOL    HW271037   5.979   8.941   8.452
22064SOL     OW71038   7.046   8.953   8.787
22064SOL    HW171039   7.070   9.047   8.813
22064SOL    HW271040   7.030   8.899   8.869
22065SOL     OW71041   6.024   7.840   8.947
22065SOL    HW171042   6.106   7.784   8.956
22065SOL    HW271043   5.943   7.782   8.951
22066SOL     OW71044   7.189   7.895   8.185
22066SOL    HW171045   7.115   7.941   8.135
22066SOL    HW271046   7.240   7.963   8.238
22067SOL     OW71047   5.817   9.161   7.931
22067SOL    HW171048   5.851   9.238   7.985
22067SOL    HW271049   5.861   9.161   7.841
22068SOL     OW71050   6.713   8.789   9.138
22068SOL    HW171051   6.760   8.789   9.226
22068SOL    HW271052   6.665   8.702   9.127
22069SOL     OW71053   5.816   8.882   7.986
22069SOL    HW171054   5.790   8.978   7.986
22069SOL    HW271055   5.745   8.828   8.031
22070SOL     OW71056   5.826   8.539   8.334
22070SOL    HW171057   5.840   8.455   8.386
22070SOL    HW271058   5.771   8.603   8.389
22071SOL     OW71059   6.206   9.234   8.887
22071SOL    HW171060   6.114   9.217   8.922
22071SOL    HW271061   6.234   9.326   8.913
22072SOL     OW71062   6.192   8.412   7.571
22072SOL    HW171063   6.199   8.496   7.517
22072SOL    HW271064   6.238   8.425   7.659
22073SOL     OW71065   7.180   7.562   8.928
22073SOL    HW171066   7.162   7.629   8.856
22073SOL    HW271067   7.177   7.608   9.017
22074SOL     OW71068   5.708   8.091   8.011
22074SOL    HW171069   5.663   8.003   8.028
22074SOL    HW271070   5.707   8.145   8.095
22075SOL     OW71071   7.428   9.215   7.807
22075SOL    HW171072   7.482   9.186   7.887
22075SOL    HW271073   7.458   9.305   7.778
22076SOL     OW71074   7.275   8.370   8.060
22076SOL    HW171075   7.370   8.341   8.068
22076SOL    HW271076   7.267   8.435   7.985
22077SOL     OW71077   7.227   8.556   7.880
22077SOL    HW171078   7.313   8.558   7.828
22077SOL    HW271079   7.241   8.603   7.968
22078SOL     OW71080   5.699   8.185   9.045
22078SOL    HW171081   5.787   8.172   9.090
22078SOL    HW271082   5.686   8.282   9.023
22079SOL     OW71083   6.879   8.676   8.871
22079SOL    HW171084   6.916   8.603   8.813
22079SOL    HW271085   6.931   8.681   8.956
22080SOL     OW71086   6.395   7.452   7.950
22080SOL    HW171087   6.435   7.543   7.941
22080SOL    HW271088   6.295   7.460   7.956
22081SOL     OW71089   5.783   8.424   8.712
22081SOL    HW171090   5.872   8.379   8.698
22081SOL    HW271091   5.710   8.359   8.693
22082SOL     OW71092   7.111   8.447   7.638
22082SOL    HW171093   7.048   8.371   7.651
22082SOL    HW271094   7.159   8.465   7.724
22083SOL     OW71095   6.773   9.240   9.064
22083SOL    HW171096   6.797   9.300   8.988
22083SOL    HW271097   6.780   9.145   9.034
22084SOL     OW71098   7.052   8.865   8.401
22084SOL    HW171099   6.993   8.871   8.481
22084SOL    HW271100   7.037   8.777   8.355
22085SOL     OW71101   7.253   9.162   8.020
22085SOL    HW171102   7.212   9.139   7.932
22085SOL    HW271103   7.235   9.088   8.085
22086SOL     OW71104   6.184   8.177   7.718
22086SOL    HW171105   6.208   8.246   7.650
22086SOL    HW271106   6.106   8.210   7.772
22087SOL     OW71107   6.867   7.793   8.392
22087SOL    HW171108   6.781   7.743   8.379
22087SOL    HW271109   6.929   7.739   8.448
22088SOL     OW71110   7.162   9.110   7.755
22088SOL    HW171111   7.251   9.156   7.758
22088SOL    HW271112   7.141   9.086   7.660
22089SOL     OW71113   6.393   8.053   8.913
22089SOL    HW171114   6.346   8.050   9.002
22089SOL    HW271115   6.342   7.998   8.847
22090SOL     OW71116   6.980   7.917   9.122
22090SOL    HW171117   6.960   7.960   9.210
22090SOL    HW271118   7.058   7.855   9.131
22091SOL     OW71119   6.559   8.338   9.020
22091SOL    HW171120   6.605   8.254   8.991
22091SOL    HW271121   6.503   8.372   8.945
22092SOL     OW71122   6.577   7.858   8.690
22092SOL    HW171123   6.500   7.892   8.744
22092SOL    HW271124   6.543   7.807   8.611
22093SOL     OW71125   6.627   8.149   7.877
22093SOL    HW171126   6.653   8.145   7.973
22093SOL    HW271127   6.542   8.098   7.863
22094SOL     OW71128   5.662   8.259   8.237
22094SOL    HW171129   5.761   8.247   8.246
22094SOL    HW271130   5.638   8.354   8.258
22095SOL     OW71131   5.716   9.269   9.019
22095SOL    HW171132   5.706   9.254   9.118
22095SOL    HW271133   5.630   9.305   8.983
22096SOL     OW71134   6.451   7.796   7.643
22096SOL    HW171135   6.510   7.859   7.594
22096SOL    HW271136   6.470   7.702   7.614
22097SOL     OW71137   7.305   8.033   9.279
22097SOL    HW171138   7.279   8.122   9.243
22097SOL    HW271139   7.303   7.965   9.206
22098SOL     OW71140   6.948   8.592   7.993
22098SOL    HW171141   7.031   8.563   7.945
22098SOL    HW271142   6.899   8.659   7.937
22099SOL     OW71143   6.136   7.644   8.333
22099SOL    HW171144   6.131   7.639   8.433
22099SOL    HW271145   6.138   7.740   8.304
22100SOL     OW71146   6.594   8.904   7.925
22100SOL    HW171147   6.548   8.976   7.873
22100SOL    HW271148   6.590   8.924   8.023
22101SOL     OW71149   7.381   8.514   8.321
22101SOL    HW171150   7.319   8.499   8.245
22101SOL    HW271151   7.329   8.525   8.406
22102SOL     OW71152   6.813   8.998   8.954
22102SOL    HW171153   6.819   8.921   9.018
22102SOL    HW271154   6.761   8.972   8.874
22103SOL     OW71155   5.907   8.391   7.690
22103SOL    HW171156   5.989   8.430   7.648
22103SOL    HW271157   5.880   8.309   7.641
22104SOL     OW71158   7.044   8.183   8.176
22104SOL    HW171159   7.039   8.118   8.251
22104SOL    HW271160   7.124   8.242   8.189
22105SOL     OW71161   6.047   8.714   9.175
22105SOL    HW171162   5.997   8.715   9.089
22105SOL    HW271163   5.984   8.696   9.251
22106SOL     OW71164   6.697   9.224   7.685
22106SOL    HW171165   6.637   9.162   7.735
22106SOL    HW271166   6.728   9.180   7.600
22107SOL     OW71167   5.788   7.733   8.946
22107SOL    HW171168   5.708   7.793   8.933
22107SOL    HW271169   5.778   7.684   9.032
22108SOL     OW71170   7.218   8.825   7.529
22108SOL    HW171171   7.186   8.919   7.519
22108SOL    HW271172   7.142   8.762   7.517
22109SOL     OW71173   6.050   9.191   7.771
22109SOL    HW171174   6.083   9.230   7.857
22109SOL    HW271175   6.126   9.184   7.706
22110SOL     OW71176   6.986   7.555   7.874
22110SOL    HW171177   6.962   7.518   7.784
22110SOL    HW271178   7.085   7.571   7.878
22111SOL     OW71179   5.835   9.233   8.689
22111SOL    HW171180   5.892   9.168   8.739
22111SOL    HW271181   5.819   9.200   8.596
22112SOL     OW71182   6.526   9.146   8.352
22112SOL    HW171183   6.606   9.089   8.373
22112SOL    HW271184   6.477   9.106   8.275
22113SOL     OW71185   5.968   8.148   7.928
22113SOL    HW171186   6.013   8.058   7.925
22113SOL    HW271187   5.874   8.137   7.961
22114SOL     OW71188   7.133   7.670   9.177
22114SOL    HW171189   7.128   7.707   9.269
22114SOL    HW271190   7.061   7.601   9.165
22115SOL     OW71191   6.200   7.570   7.565
22115SOL    HW171192   6.298   7.548   7.572
22115SOL    HW271193   6.169   7.553   7.472
22116SOL     OW71194   6.367   7.712   9.197
22116SOL    HW171195   6.434   7.651   9.240
22116SOL    HW271196   6.294   7.731   9.262
22117SOL     OW71197   6.474   8.962   8.643
22117SOL    HW171198   6.451   8.937   8.549
22117SOL    HW271199   6.535   8.893   8.682
22118SOL     OW71200   6.937   8.038   8.881
22118SOL    HW171201   6.965   7.995   8.966
22118SOL    HW271202   6.962   8.134   8.882
22119SOL     OW71203   6.389   8.850   8.372
22119SOL    HW171204   6.479   8.864   8.330
22119SOL    HW271205   6.318   8.852   8.301
22120SOL     OW71206   6.508   7.951   8.347
22120SOL    HW171207   6.483   7.942   8.251
22120SOL    HW271208   6.556   7.869   8.378
22121SOL     OW71209   6.125   7.512   7.960
22121SOL    HW171210   6.044   7.513   8.018
22121SOL    HW271211   6.128   7.595   7.905
22122SOL     OW71212   7.020   8.636   7.489
22122SOL    HW171213   7.052   8.560   7.546
22122SOL    HW271214   6.928   8.663   7.519
22123SOL     OW71215   5.883   7.483   7.619
22123SOL    HW171216   5.932   7.567   7.598
22123SOL    HW271217   5.945   7.418   7.664
22124SOL     OW71218   6.521   7.684   7.928
22124SOL    HW171219   6.473   7.725   7.850
22124SOL    HW271220   6.620   7.682   7.909
22125SOL     OW71221   6.662   8.131   8.912
22125SOL    HW171222   6.582   8.070   8.915
22125SOL    HW271223   6.743   8.078   8.888
22126SOL     OW71224   6.813   9.018   8.241
22126SOL    HW171225   6.834   9.092   8.176
22126SOL    HW271226   6.881   9.018   8.314
22127SOL     OW71227   6.857   9.245   8.039
22127SOL    HW171228   6.901   9.309   7.975
22127SOL    HW271229   6.807   9.297   8.109
22128SOL     OW71230   6.618   7.997   7.464
22128SOL    HW171231   6.577   8.079   7.425
22128SOL    HW271232   6.682   8.023   7.537
22129SOL     OW71233   5.664   8.004   8.834
22129SOL    HW171234   5.756   8.003   8.793
22129SOL    HW271235   5.658   8.078   8.901
22130SOL     OW71236   6.147   7.670   8.595
22130SOL    HW171237   6.185   7.586   8.632
22130SOL    HW271238   6.059   7.689   8.639
22131SOL     OW71239   6.452   7.902   8.090
22131SOL    HW171240   6.420   7.974   8.028
22131SOL    HW271241   6.476   7.821   8.037
22132SOL     OW71242   6.603   7.487   8.201
22132SOL    HW171243   6.531   7.492   8.132
22132SOL    HW271244   6.579   7.418   8.270
22133SOL     OW71245   7.015   8.621   8.315
22133SOL    HW171246   6.960   8.537   8.308
22133SOL    HW271247   7.041   8.650   8.223
22134SOL     OW71248   7.052   8.038   8.440
22134SOL    HW171249   7.022   7.943   8.447
22134SOL    HW271250   7.125   8.054   8.506
22135SOL     OW71251   7.443   8.281   7.825
22135SOL    HW171252   7.485   8.217   7.889
22135SOL    HW271253   7.405   8.230   7.747
22136SOL     OW71254   6.074   8.833   7.622
22136SOL    HW171255   5.987   8.818   7.669
22136SOL    HW271256   6.057   8.859   7.527
22137SOL     OW71257   7.250   8.728   8.105
22137SOL    HW171258   7.349   8.736   8.119
22137SOL    HW271259   7.205   8.812   8.136
22138SOL     OW71260   6.976   8.023   7.526
22138SOL    HW171261   6.922   8.002   7.607
22138SOL    HW271262   7.067   7.982   7.535
22139SOL     OW71263   6.113   7.704   7.776
22139SOL    HW171264   6.140   7.645   7.701
22139SOL    HW271265   6.113   7.799   7.745
22140SOL     OW71266   7.340   8.671   9.036
22140SOL    HW171267   7.431   8.632   9.023
22140SOL    HW271268   7.348   8.767   9.060
22141SOL     OW71269   6.650   8.795   8.788
22141SOL    HW171270   6.570   8.772   8.843
22141SOL    HW271271   6.733   8.769   8.837
22142SOL     OW71272   7.178   9.077   9.073
22142SOL    HW171273   7.205   9.111   8.983
22142SOL    HW271274   7.257   9.039   9.119
22143SOL     OW71275   6.697   8.643   8.548
22143SOL    HW171276   6.657   8.687   8.629
22143SOL    HW271277   6.656   8.680   8.465
22144SOL     OW71278   7.224   8.547   8.527
22144SOL    HW171279   7.229   8.628   8.586
22144SOL    HW271280   7.138   8.549   8.476
22145SOL     OW71281   6.501   7.537   8.850
22145SOL    HW171282   6.526   7.517   8.755
22145SOL    HW271283   6.573   7.593   8.892
22146SOL     OW71284   6.566   8.564   9.167
22146SOL    HW171285   6.467   8.570   9.177
22146SOL    HW271286   6.589   8.484   9.111
22147SOL     OW71287   6.291   8.498   7.816
22147SOL    HW171288   6.277   8.505   7.915
22147SOL    HW271289   6.375   8.447   7.798
22148SOL     OW71290   5.996   8.261   8.699
22148SOL    HW171291   6.082   8.273   8.749
22148SOL    HW271292   5.954   8.174   8.726
22149SOL     OW71293   6.860   7.834   8.710
22149SOL    HW171294   6.881   7.908   8.774
22149SOL    HW271295   6.771   7.851   8.667
22150SOL     OW71296   5.650   9.012   8.779
22150SOL    HW171297   5.604   9.094   8.745
22150SOL    HW271298   5.748   9.031   8.788
22151SOL     OW71299   5.953   8.548   7.949
22151SOL    HW171300   5.946   8.631   7.893
22151SOL    HW271301   5.957   8.468   7.889
22152SOL     OW71302   6.152   7.985   8.313
22152SOL    HW171303   6.164   8.051   8.239
22152SOL    HW271304   6.198   8.019   8.396
22153SOL     OW71305   6.838   8.796   7.836
22153SOL    HW171306   6.888   8.873   7.876
22153SOL    HW271307   6.743   8.798   7.868
22154SOL     OW71308   6.858   8.893   8.590
22154SOL    HW171309   6.905   8.906   8.677
22154SOL    HW271310   6.792   8.819   8.599
22155SOL     OW71311   7.168   8.087   7.920
22155SOL    HW171312   7.137   8.148   7.993
22155SOL    HW271313   7.218   8.139   7.851
22156SOL     OW71314   5.940   8.958   8.777
22156SOL    HW171315   5.919   8.914   8.690
22156SOL    HW271316   6.037   8.984   8.780
22157SOL     OW71317   5.988   8.199   9.046
22157SOL    HW171318   6.056   8.254   8.999
22157SOL    HW271319   6.028   8.111   9.073
22158SOL     OW71320   7.173   8.227   9.118
22158SOL    HW171321   7.081   8.265   9.113
22158SOL    HW271322   7.233   8.274   9.053
22159SOL     OW71323   6.599   7.553   9.218
22159SOL    HW171324   6.605   7.638   9.166
22159SOL    HW271325   6.631   7.477   9.161
22160SOL     OW71326   6.090   7.498   9.188
22160SOL    HW171327   6.048   7.441   9.118
22160SOL    HW271328   6.024   7.567   9.220
22161SOL     OW71329   6.159   8.318   8.477
22161SOL    HW171330   6.203   8.407   8.468
22161SOL    HW271331   6.096   8.318   8.554
22162SOL     OW71332   6.946   8.310   8.493
22162SOL    HW171333   6.871   8.310   8.427
22162SOL    HW271334   6.983   8.218   8.502
22163SOL     OW71335   6.795   7.973   7.723
22163SOL    HW171336   6.808   7.889   7.777
22163SOL    HW271337   6.766   8.047   7.783
22164SOL     OW71338   5.893   7.661   8.679
22164SOL    HW171339   5.870   7.698   8.769
22164SOL    HW271340   5.863   7.566   8.673
22165SOL     OW71341   5.623   8.758   8.730
22165SOL    HW171342   5.676   8.709   8.798
22165SOL    HW271343   5.645   8.856   8.735
22166SOL     OW71344   6.318   8.082   8.512
22166SOL    HW171345   6.377   8.056   8.436
22166SOL    HW271346   6.290   8.178   8.501
22167SOL     OW71347   7.314   8.383   9.302
22167SOL    HW171348   7.268   8.376   9.213
22167SOL    HW271349   7.252   8.427   9.368
22168SOL     OW71350   5.893   7.511   8.066
22168SOL    HW171351   5.882   7.605   8.099
22168SOL    HW271352   5.888   7.448   8.143
22169SOL     OW71353   7.208   7.815   7.822
22169SOL    HW171354   7.210   7.739   7.886
22169SOL    HW271355   7.160   7.892   7.862
22170SOL     OW71356   6.609   8.214   8.414
22170SOL    HW171357   6.624   8.235   8.510
22170SOL    HW271358   6.579   8.119   8.405
22171SOL     OW71359   6.566   9.021   9.148
22171SOL    HW171360   6.546   9.065   9.060
22171SOL    HW271361   6.605   8.930   9.132
22172SOL     OW71362   7.445   8.966   9.053
22172SOL    HW171363   7.459   8.993   8.958
22172SOL    HW271364   7.528   8.988   9.106
22173SOL     OW71365   5.936   8.346   9.252
22173SOL    HW171366   6.012   8.390   9.300
22173SOL    HW271367   5.971   8.299   9.170
22174SOL     OW71368   7.126   7.722   7.573
22174SOL    HW171369   7.065   7.647   7.596
22174SOL    HW271370   7.148   7.774   7.656
22175SOL     OW71371   6.889   8.286   7.490
22175SOL    HW171372   6.923   8.193   7.505
22175SOL    HW271373   6.907   8.313   7.395
22176SOL     OW71374   6.654   8.781   8.297
22176SOL    HW171375   6.661   8.697   8.242
22176SOL    HW271376   6.716   8.850   8.261
22177SOL     OW71377   5.905   8.258   8.397
22177SOL    HW171378   5.998   8.294   8.402
22177SOL    HW271379   5.899   8.173   8.449
22178SOL     OW71380   5.925   7.957   8.454
22178SOL    HW171381   5.873   7.874   8.437
22178SOL    HW271382   6.002   7.962   8.390
22179SOL     OW71383   6.746   7.655   8.925
22179SOL    HW171384   6.746   7.719   9.002
22179SOL    HW271385   6.774   7.703   8.842
22180SOL     OW71386   5.594   8.774   7.648
22180SOL    HW171387   5.501   8.795   7.617
22180SOL    HW271388   5.604   8.675   7.661
22181SOL     OW71389   5.674   9.249   8.375
22181SOL    HW171390   5.632   9.163   8.348
22181SOL    HW271391   5.768   9.252   8.341
22182SOL     OW71392   6.588   8.244   8.686
22182SOL    HW171393   6.629   8.212   8.772
22182SOL    HW271394   6.492   8.217   8.683
22183SOL     OW71395   5.626   7.992   8.562
22183SOL    HW171396   5.711   7.959   8.521
22183SOL    HW271397   5.639   8.007   8.660
22184SOL     OW71398   5.775   7.968   9.170
22184SOL    HW171399   5.834   7.928   9.100
22184SOL    HW271400   5.717   8.039   9.129
22185SOL     OW71401   6.955   8.398   9.108
22185SOL    HW171402   6.994   8.487   9.128
22185SOL    HW271403   6.965   8.378   9.011
22186SOL     OW71404   6.401   8.020   7.773
22186SOL    HW171405   6.408   7.931   7.727
22186SOL    HW271406   6.307   8.054   7.765
22187SOL     OW71407   7.243   8.052   8.654
22187SOL    HW171408   7.205   7.983   8.716
22187SOL    HW271409   7.325   8.016   8.610
22188SOL     OW71410   5.838   9.012   9.192
22188SOL    HW171411   5.808   9.069   9.268
22188SOL    HW271412   5.831   8.915   9.218
22189SOL     OW71413   6.257   7.912   8.717
22189SOL    HW171414   6.223   7.823   8.687
22189SOL    HW271415   6.283   7.966   8.637
22190SOL     OW71416   6.516   9.126   8.913
22190SOL    HW171417   6.492   9.108   8.818
22190SOL    HW271418   6.546   9.220   8.923
22191SOL     OW71419   6.059   7.948   7.639
22191SOL    HW171420   6.120   8.028   7.643
22191SOL    HW271421   5.964   7.979   7.646
22192SOL     OW71422   5.745   8.585   8.914
22192SOL    HW171423   5.767   8.524   8.990
22192SOL    HW271424   5.755   8.536   8.828
22193SOL     OW71425   6.933   8.507   8.682
22193SOL    HW171426   6.957   8.444   8.608
22193SOL    HW271427   6.843   8.547   8.664
22194SOL     OW71428   7.345   9.195   8.602
22194SOL    HW171429   7.406   9.225   8.529
22194SOL    HW271430   7.307   9.106   8.580
22195SOL     OW71431   6.838   9.179   8.576
22195SOL    HW171432   6.922   9.184   8.522
22195SOL    HW271433   6.815   9.083   8.594
22196SOL     OW71434   5.669   8.706   8.470
22196SOL    HW171435   5.664   8.705   8.570
22196SOL    HW271436   5.586   8.665   8.432
22197SOL     OW71437   6.274   9.110   9.164
22197SOL    HW171438   6.218   9.191   9.173
22197SOL    HW271439   6.326   9.114   9.078
22198SOL     OW71440   7.312   7.583   7.971
22198SOL    HW171441   7.385   7.566   7.904
22198SOL    HW271442   7.281   7.496   8.009
22199SOL     OW71443   6.974   9.021   7.925
22199SOL    HW171444   7.041   9.033   7.851
22199SOL    HW271445   6.934   9.110   7.948
22200SOL     OW71446   5.716   9.242   9.299
22200SOL    HW171447   5.675   9.168   9.352
22200SOL    HW271448   5.780   9.293   9.357
22201SOL     OW71449   6.866   8.375   8.120
22201SOL    HW171450   6.926   8.294   8.122
22201SOL    HW271451   6.906   8.444   8.060
22202SOL     OW71452   6.416   8.721   8.870
22202SOL    HW171453   6.411   8.754   8.965
22202SOL    HW271454   6.330   8.740   8.824
22203SOL     OW71455   6.258   9.064   7.602
22203SOL    HW171456   6.267   9.074   7.503
22203SOL    HW271457   6.218   8.975   7.623
22204SOL     OW71458   7.236   9.168   8.842
22204SOL    HW171459   7.289   9.178   8.758
22204SOL    HW271460   7.209   9.258   8.876
22205SOL     OW71461   7.427   7.623   8.411
22205SOL    HW171462   7.466   7.538   8.375
22205SOL    HW271463   7.329   7.625   8.392
22206SOL     OW71464   5.849   7.774   8.168
22206SOL    HW171465   5.770   7.825   8.134
22206SOL    HW271466   5.840   7.759   8.266
22207SOL     OW71467   6.780   9.060   7.479
22207SOL    HW171468   6.786   8.967   7.516
22207SOL    HW271469   6.721   9.060   7.399
22208SOL     OW71470   6.408   8.450   8.820
22208SOL    HW171471   6.448   8.449   8.728
22208SOL    HW271472   6.418   8.542   8.860
22209SOL     OW71473   6.502   8.358   7.739
22209SOL    HW171474   6.565   8.396   7.671
22209SOL    HW271475   6.542   8.275   7.778
22210SOL     OW71476   7.090   9.055   7.492
22210SOL    HW171477   6.998   9.092   7.499
22210SOL    HW271478   7.128   9.075   7.402
22211SOL     OW71479   5.958   8.736   8.938
22211SOL    HW171480   5.945   8.829   8.904
22211SOL    HW271481   5.874   8.684   8.925
22212SOL     OW71482   7.200   8.740   8.737
22212SOL    HW171483   7.260   8.743   8.817
22212SOL    HW271484   7.125   8.804   8.750
22213SOL     OW71485   6.625   8.546   8.144
22213SOL    HW171486   6.555   8.499   8.198
22213SOL    HW271487   6.684   8.478   8.101
22214SOL     OW71488   6.600   7.684   8.419
22214SOL    HW171489   6.592   7.648   8.326
22214SOL    HW271490   6.598   7.608   8.484
22215SOL     OW71491   6.176   8.935   7.939
22215SOL    HW171492   6.218   8.877   7.869
22215SOL    HW271493   6.132   9.014   7.895
22216SOL     OW71494   7.295   7.833   8.829
22216SOL    HW171495   7.368   7.902   8.833
22216SOL    HW271496   7.323   7.758   8.770
22217SOL     OW71497   5.841   8.796   7.738
22217SOL    HW171498   5.745   8.797   7.711
22217SOL    HW271499   5.853   8.849   7.822
22218SOL     OW71500   5.691   8.461   9.174
22218SOL    HW171501   5.614   8.428   9.228
22218SOL    HW271502   5.776   8.431   9.216
22219SOL     OW71503   6.258   7.651   8.937
22219SOL    HW171504   6.348   7.635   8.897
22219SOL    HW271505   6.266   7.656   9.036
22220SOL     OW71506   5.661   7.793   7.481
22220SOL    HW171507   5.569   7.765   7.452
22220SOL    HW271508   5.692   7.870   7.425
22221SOL     OW71509   7.026   8.304   8.846
22221SOL    HW171510   6.969   8.356   8.783
22221SOL    HW271511   7.122   8.316   8.822
22222SOL     OW71512   5.658   7.614   7.766
22222SOL    HW171513   5.641   7.697   7.712
22222SOL    HW271514   5.748   7.577   7.744
22223SOL     OW71515   6.769   8.783   7.567
22223SOL    HW171516   6.670   8.772   7.569
22223SOL    HW271517   6.803   8.798   7.660
22224SOL     OW71518   6.199   8.290   8.879
22224SOL    HW171519   6.255   8.371   8.862
22224SOL    HW271520   6.258   8.210   8.882
22225SOL     OW71521   7.079   9.215   8.407
22225SOL    HW171522   7.112   9.279   8.338
22225SOL    HW271523   7.145   9.209   8.482
22226SOL     OW71524   7.036   8.668   9.081
22226SOL    HW171525   7.027   8.658   9.180
22226SOL    HW271526   7.132   8.661   9.055
22227SOL     OW71527   5.976   9.189   9.008
22227SOL    HW171528   5.885   9.230   9.006
22227SOL    HW271529   5.969   9.095   9.040
22228SOL     OW71530   7.260   8.331   8.702
22228SOL    HW171531   7.233   8.242   8.665
22228SOL    HW271532   7.261   8.399   8.629
22229SOL     OW71533   6.811   7.773   7.897
22229SOL    HW171534   6.876   7.699   7.886
22229SOL    HW271535   6.831   7.823   7.981
22230SOL     OW71536   6.180   8.193   8.100
22230SOL    HW171537   6.230   8.278   8.081
22230SOL    HW271538   6.092   8.195   8.052
22231SOL     OW71539   7.363   7.790   9.090
22231SOL    HW171540   7.346   7.821   8.996
22231SOL    HW271541   7.279   7.753   9.128
22232SOL     OW71542   7.316   8.382   8.965
22232SOL    HW171543   7.354   8.473   8.980
22232SOL    HW271544   7.308   8.365   8.866
22233SOL     OW71545   6.445   8.822   7.464
22233SOL    HW171546   6.399   8.837   7.552
22233SOL    HW271547   6.489   8.907   7.434
22234SOL     OW71548   6.247   9.238   8.401
22234SOL    HW171549   6.201   9.326   8.388
22234SOL    HW271550   6.346   9.250   8.394
22235SOL     OW71551   6.445   8.404   8.309
22235SOL    HW171552   6.499   8.335   8.357
22235SOL    HW271553   6.413   8.473   8.375
22236SOL     OW71554   6.669   8.432   7.535
22236SOL    HW171555   6.646   8.485   7.453
22236SOL    HW271556   6.750   8.376   7.516
22237SOL     OW71557   7.447   9.017   8.299
22237SOL    HW171558   7.376   9.005   8.229
22237SOL    HW271559   7.448   8.938   8.359
22238SOL     OW71560   5.807   8.762   9.292
22238SOL    HW171561   5.742   8.689   9.271
22238SOL    HW271562   5.811   8.776   9.390
22239SOL     OW71563   5.665   8.688   8.101
22239SOL    HW171564   5.664   8.641   8.189
22239SOL    HW271565   5.747   8.660   8.050
22240SOL     OW71566   6.258   8.839   9.072
22240SOL    HW171567   6.180   8.789   9.110
22240SOL    HW271568   6.255   8.934   9.103
22241SOL     OW71569   7.410   7.640   8.675
22241SOL    HW171570   7.406   7.550   8.719
22241SOL    HW271571   7.413   7.629   8.576
22242SOL     OW71572   6.014   7.872   7.968
22242SOL    HW171573   6.044   7.800   7.906
22242SOL    HW271574   5.975   7.832   8.051
22243SOL     OW71575   7.291   8.935   8.552
22243SOL    HW171576   7.198   8.910   8.525
22243SOL    HW271577   7.317   8.885   8.634
22244SOL     OW71578   5.903   7.995   8.728
22244SOL    HW171579   5.941   7.936   8.800
22244SOL    HW271580   5.943   7.969   8.640
22245SOL     OW71581   7.010   7.662   8.560
22245SOL    HW171582   7.062   7.597   8.615
22245SOL    HW271583   6.961   7.725   8.621
22246SOL     OW71584   6.587   7.482   8.602
22246SOL    HW171585   6.524   7.410   8.571
22246SOL    HW271586   6.680   7.446   8.602
22247SOL     OW71587   6.356   8.778   7.749
22247SOL    HW171588   6.310   8.691   7.766
22247SOL    HW271589   6.447   8.775   7.790
22248SOL     OW71590   6.204   9.015   8.732
22248SOL    HW171591   6.199   9.097   8.789
22248SOL    HW271592   6.293   9.012   8.687
22249SOL     OW71593   6.938   7.500   7.616
22249SOL    HW171594   6.973   7.459   7.532
22249SOL    HW271595   6.848   7.462   7.636
22250SOL     OW71596   6.886   7.901   8.139
22250SOL    HW171597   6.827   7.981   8.143
22250SOL    HW271598   6.901   7.866   8.232
22251SOL     OW71599   7.179   7.669   8.330
22251SOL    HW171600   7.095   7.668   8.384
22251SOL    HW271601   7.181   7.752   8.274
22252SOL     OW71602   5.625   8.525   7.748
22252SOL    HW171603   5.724   8.514   7.739
22252SOL    HW271604   5.585   8.439   7.780
22253SOL     OW71605   6.461   9.094   7.785
22253SOL    HW171606   6.384   9.059   7.731
22253SOL    HW271607   6.429   9.165   7.847
22254SOL     OW71608   7.341   8.055   9.541
22254SOL    HW171609   7.329   8.042   9.442
22254SOL    HW271610   7.311   7.974   9.590
22255SOL     OW71611   5.817   9.161   9.793
22255SOL    HW171612   5.851   9.238   9.847
22255SOL    HW271613   5.861   9.161   9.703
22256SOL     OW71614   5.816   8.882   9.848
22256SOL    HW171615   5.790   8.978   9.848
22256SOL    HW271616   5.745   8.828   9.893
22257SOL     OW71617   6.192   8.412   9.433
22257SOL    HW171618   6.199   8.496   9.379
22257SOL    HW271619   6.238   8.425   9.521
22258SOL     OW71620   5.708   8.091   9.873
22258SOL    HW171621   5.663   8.003   9.890
22258SOL    HW271622   5.707   8.145   9.957
22259SOL     OW71623   7.428   9.215   9.669
22259SOL    HW171624   7.482   9.186   9.749
22259SOL    HW271625   7.458   9.305   9.640
22260SOL     OW71626   5.613   9.044   9.427
22260SOL    HW171627   5.594   8.948   9.448
22260SOL    HW271628   5.580   9.102   9.502
22261SOL     OW71629   7.227   8.556   9.742
22261SOL    HW171630   7.313   8.558   9.690
22261SOL    HW271631   7.241   8.603   9.830
22262SOL     OW71632   6.199   8.813  10.036
22262SOL    HW171633   6.150   8.726  10.045
22262SOL    HW271634   6.176   8.856   9.949
22263SOL     OW71635   6.395   7.452   9.812
22263SOL    HW171636   6.435   7.543   9.803
22263SOL    HW271637   6.295   7.460   9.818
22264SOL     OW71638   6.184   8.177   9.580
22264SOL    HW171639   6.208   8.246   9.512
22264SOL    HW271640   6.106   8.210   9.634
22265SOL     OW71641   7.162   9.110   9.617
22265SOL    HW171642   7.251   9.156   9.620
22265SOL    HW271643   7.141   9.086   9.522
22266SOL     OW71644   6.627   8.149   9.739
22266SOL    HW171645   6.653   8.145   9.835
22266SOL    HW271646   6.542   8.098   9.725
22267SOL     OW71647   5.662   8.259  10.099
22267SOL    HW171648   5.761   8.247  10.108
22267SOL    HW271649   5.638   8.354  10.120
22268SOL     OW71650   6.451   7.796   9.505
22268SOL    HW171651   6.510   7.859   9.456
22268SOL    HW271652   6.470   7.702   9.476
22269SOL     OW71653   6.594   8.904   9.787
22269SOL    HW171654   6.548   8.976   9.735
22269SOL    HW271655   6.590   8.924   9.885
22270SOL     OW71656   5.937   9.249  10.163
22270SOL    HW171657   5.987   9.163  10.169
22270SOL    HW271658   6.002   9.326  10.160
22271SOL     OW71659   5.907   8.391   9.552
22271SOL    HW171660   5.989   8.430   9.510
22271SOL    HW271661   5.880   8.309   9.503
22272SOL     OW71662   6.697   9.224   9.547
22272SOL    HW171663   6.637   9.162   9.597
22272SOL    HW271664   6.728   9.180   9.462
22273SOL     OW71665   7.218   8.825   9.391
22273SOL    HW171666   7.186   8.919   9.381
22273SOL    HW271667   7.142   8.762   9.379
22274SOL     OW71668   6.050   9.191   9.633
22274SOL    HW171669   6.083   9.230   9.719
22274SOL    HW271670   6.126   9.184   9.568
22275SOL     OW71671   6.986   7.555   9.736
22275SOL    HW171672   6.962   7.518   9.646
22275SOL    HW271673   7.085   7.571   9.740
22276SOL     OW71674   5.968   8.148   9.790
22276SOL    HW171675   6.013   8.058   9.787
22276SOL    HW271676   5.874   8.137   9.823
22277SOL     OW71677   6.200   7.570   9.427
22277SOL    HW171678   6.298   7.548   9.434
22277SOL    HW271679   6.169   7.553   9.334
22278SOL     OW71680   6.125   7.512   9.822
22278SOL    HW171681   6.044   7.513   9.880
22278SOL    HW271682   6.128   7.595   9.767
22279SOL     OW71683   7.020   8.636   9.351
22279SOL    HW171684   7.052   8.560   9.408
22279SOL    HW271685   6.928   8.663   9.381
22280SOL     OW71686   6.521   7.684   9.790
22280SOL    HW171687   6.473   7.725   9.712
22280SOL    HW271688   6.620   7.682   9.771
22281SOL     OW71689   6.045   8.600  10.051
22281SOL    HW171690   5.974   8.573  10.116
22281SOL    HW271691   6.019   8.572   9.958
22282SOL     OW71692   6.452   7.902   9.952
22282SOL    HW171693   6.420   7.974   9.890
22282SOL    HW271694   6.476   7.821   9.899
22283SOL     OW71695   7.443   8.281   9.687
22283SOL    HW171696   7.485   8.217   9.751
22283SOL    HW271697   7.405   8.230   9.609
22284SOL     OW71698   6.074   8.833   9.484
22284SOL    HW171699   5.987   8.818   9.531
22284SOL    HW271700   6.057   8.859   9.389
22285SOL     OW71701   6.113   7.704   9.638
22285SOL    HW171702   6.140   7.645   9.563
22285SOL    HW271703   6.113   7.799   9.607
22286SOL     OW71704   6.291   8.498   9.678
22286SOL    HW171705   6.277   8.505   9.777
22286SOL    HW271706   6.375   8.447   9.660
22287SOL     OW71707   5.953   8.548   9.811
22287SOL    HW171708   5.946   8.631   9.755
22287SOL    HW271709   5.957   8.468   9.751
22288SOL     OW71710   6.838   8.796   9.698
22288SOL    HW171711   6.888   8.873   9.738
22288SOL    HW271712   6.743   8.798   9.730
22289SOL     OW71713   6.795   7.973   9.585
22289SOL    HW171714   6.808   7.889   9.639
22289SOL    HW271715   6.766   8.047   9.645
22290SOL     OW71716   5.893   7.511   9.928
22290SOL    HW171717   5.882   7.605   9.961
22290SOL    HW271718   5.888   7.448  10.005
22291SOL     OW71719   7.208   7.815   9.684
22291SOL    HW171720   7.210   7.739   9.748
22291SOL    HW271721   7.160   7.892   9.724
22292SOL     OW71722   7.126   7.722   9.435
22292SOL    HW171723   7.065   7.647   9.458
22292SOL    HW271724   7.148   7.774   9.518
22293SOL     OW71725   5.594   8.774   9.510
22293SOL    HW171726   5.501   8.795   9.479
22293SOL    HW271727   5.604   8.675   9.523
22294SOL     OW71728   6.401   8.020   9.635
22294SOL    HW171729   6.408   7.931   9.589
22294SOL    HW271730   6.307   8.054   9.627
22295SOL     OW71731   6.059   7.948   9.501
22295SOL    HW171732   6.120   8.028   9.505
22295SOL    HW271733   5.964   7.979   9.508
22296SOL     OW71734   7.312   7.583   9.833
22296SOL    HW171735   7.385   7.566   9.766
22296SOL    HW271736   7.281   7.496   9.871
22297SOL     OW71737   6.974   9.021   9.787
22297SOL    HW171738   7.041   9.033   9.713
22297SOL    HW271739   6.934   9.110   9.810
22298SOL     OW71740   6.258   9.064   9.464
22298SOL    HW171741   6.267   9.074   9.365
22298SOL    HW271742   6.218   8.975   9.485
22299SOL     OW71743   6.780   9.060   9.341
22299SOL    HW171744   6.786   8.967   9.378
22299SOL    HW271745   6.721   9.060   9.261
22300SOL     OW71746   6.502   8.358   9.601
22300SOL    HW171747   6.565   8.396   9.533
22300SOL    HW271748   6.542   8.275   9.640
22301SOL     OW71749   7.090   9.055   9.354
22301SOL    HW171750   6.998   9.092   9.361
22301SOL    HW271751   7.128   9.075   9.264
22302SOL     OW71752   6.176   8.935   9.801
22302SOL    HW171753   6.218   8.877   9.731
22302SOL    HW271754   6.132   9.014   9.757
22303SOL     OW71755   5.841   8.796   9.600
22303SOL    HW171756   5.745   8.797   9.573
22303SOL    HW271757   5.853   8.849   9.684
22304SOL     OW71758   5.658   7.614   9.628
22304SOL    HW171759   5.641   7.697   9.574
22304SOL    HW271760   5.748   7.577   9.606
22305SOL     OW71761   6.769   8.783   9.429
22305SOL    HW171762   6.670   8.772   9.431
22305SOL    HW271763   6.803   8.798   9.522
22306SOL     OW71764   6.811   7.773   9.759
22306SOL    HW171765   6.876   7.699   9.748
22306SOL    HW271766   6.831   7.823   9.843
22307SOL     OW71767   6.180   8.193   9.962
22307SOL    HW171768   6.230   8.278   9.943
22307SOL    HW271769   6.092   8.195   9.914
22308SOL     OW71770   6.669   8.432   9.397
22308SOL    HW171771   6.646   8.485   9.315
22308SOL    HW271772   6.750   8.376   9.378
22309SOL     OW71773   5.665   8.688   9.963
22309SOL    HW171774   5.664   8.641  10.051
22309SOL    HW271775   5.747   8.660   9.912
22310SOL     OW71776   6.014   7.872   9.830
22310SOL    HW171777   6.044   7.800   9.768
22310SOL    HW271778   5.975   7.832   9.913
22311SOL     OW71779   6.356   8.778   9.611
22311SOL    HW171780   6.310   8.691   9.628
22311SOL    HW271781   6.447   8.775   9.652
22312SOL     OW71782   6.938   7.500   9.478
22312SOL    HW171783   6.973   7.459   9.394
22312SOL    HW271784   6.848   7.462   9.498
22313SOL     OW71785   5.625   8.525   9.610
22313SOL    HW171786   5.724   8.514   9.601
22313SOL    HW271787   5.585   8.439   9.642
22314SOL     OW71788   6.461   9.094   9.647
22314SOL    HW171789   6.384   9.059   9.593
22314SOL    HW271790   6.429   9.165   9.709
22315SOL     OW71791   5.811   9.585   0.996
22315SOL    HW171792   5.846   9.568   1.088
22315SOL    HW271793   5.723   9.540   0.984
22316SOL     OW71794   5.605   9.678   0.647
22316SOL    HW171795   5.523   9.721   0.686
22316SOL    HW271796   5.577   9.605   0.584
22317SOL     OW71797   7.341   9.917   0.231
22317SOL    HW171798   7.329   9.904   0.132
22317SOL    HW271799   7.311   9.836   0.280
22318SOL     OW71800   6.024   9.702   1.499
22318SOL    HW171801   6.106   9.646   1.508
22318SOL    HW271802   5.943   9.644   1.503
22319SOL     OW71803   7.189   9.757   0.737
22319SOL    HW171804   7.115   9.803   0.687
22319SOL    HW271805   7.240   9.825   0.790
22320SOL     OW71806   7.180   9.424   1.480
22320SOL    HW171807   7.162   9.491   1.408
22320SOL    HW271808   7.177   9.470   1.569
22321SOL     OW71809   5.708   9.953   0.563
22321SOL    HW171810   5.663   9.865   0.580
22321SOL    HW271811   5.707  10.007   0.647
22322SOL     OW71812   5.903   9.561   1.801
22322SOL    HW171813   5.974   9.632   1.807
22322SOL    HW271814   5.815   9.600   1.829
22323SOL     OW71815   6.867   9.655   0.944
22323SOL    HW171816   6.781   9.605   0.931
22323SOL    HW271817   6.929   9.601   1.000
22324SOL     OW71818   6.393   9.915   1.465
22324SOL    HW171819   6.346   9.912   1.554
22324SOL    HW271820   6.342   9.860   1.399
22325SOL     OW71821   6.980   9.779   1.674
22325SOL    HW171822   6.960   9.822   1.762
22325SOL    HW271823   7.058   9.717   1.683
22326SOL     OW71824   6.577   9.720   1.242
22326SOL    HW171825   6.500   9.754   1.296
22326SOL    HW271826   6.543   9.669   1.163
22327SOL     OW71827   6.627  10.011   0.429
22327SOL    HW171828   6.653  10.007   0.525
22327SOL    HW271829   6.542   9.960   0.415
22328SOL     OW71830   6.451   9.658   0.195
22328SOL    HW171831   6.510   9.721   0.146
22328SOL    HW271832   6.470   9.564   0.166
22329SOL     OW71833   6.136   9.506   0.885
22329SOL    HW171834   6.131   9.501   0.985
22329SOL    HW271835   6.138   9.602   0.856
22330SOL     OW71836   7.044  10.045   0.728
22330SOL    HW171837   7.039   9.980   0.803
22330SOL    HW271838   7.124  10.104   0.741
22331SOL     OW71839   5.788   9.595   1.498
22331SOL    HW171840   5.708   9.655   1.485
22331SOL    HW271841   5.778   9.546   1.584
22332SOL     OW71842   6.986   9.417   0.426
22332SOL    HW171843   6.962   9.380   0.336
22332SOL    HW271844   7.085   9.433   0.430
22333SOL     OW71845   6.200   9.432   0.117
22333SOL    HW171846   6.298   9.410   0.124
22333SOL    HW271847   6.169   9.415   0.024
22334SOL     OW71848   6.367   9.574   1.749
22334SOL    HW171849   6.434   9.513   1.792
22334SOL    HW271850   6.294   9.593   1.814
22335SOL     OW71851   6.937   9.900   1.433
22335SOL    HW171852   6.965   9.857   1.518
22335SOL    HW271853   6.962   9.996   1.434
22336SOL     OW71854   6.508   9.813   0.899
22336SOL    HW171855   6.483   9.804   0.803
22336SOL    HW271856   6.556   9.731   0.930
22337SOL     OW71857   6.125   9.374   0.512
22337SOL    HW171858   6.044   9.375   0.570
22337SOL    HW271859   6.128   9.457   0.457
22338SOL     OW71860   6.521   9.546   0.480
22338SOL    HW171861   6.473   9.587   0.402
22338SOL    HW271862   6.620   9.544   0.461
22339SOL     OW71863   6.662   9.993   1.464
22339SOL    HW171864   6.582   9.932   1.467
22339SOL    HW271865   6.743   9.940   1.440
22340SOL     OW71866   6.618   9.859   0.016
22340SOL    HW171867   6.577   9.941  -0.023
22340SOL    HW271868   6.682   9.885   0.089
22341SOL     OW71869   5.664   9.866   1.386
22341SOL    HW171870   5.756   9.865   1.345
22341SOL    HW271871   5.658   9.940   1.453
22342SOL     OW71872   6.147   9.532   1.147
22342SOL    HW171873   6.185   9.448   1.184
22342SOL    HW271874   6.059   9.551   1.191
22343SOL     OW71875   6.452   9.764   0.642
22343SOL    HW171876   6.420   9.836   0.580
22343SOL    HW271877   6.476   9.683   0.589
22344SOL     OW71878   6.603   9.349   0.753
22344SOL    HW171879   6.531   9.354   0.684
22344SOL    HW271880   6.579   9.280   0.822
22345SOL     OW71881   7.052   9.900   0.992
22345SOL    HW171882   7.022   9.805   0.999
22345SOL    HW271883   7.125   9.916   1.058
22346SOL     OW71884   6.113   9.566   0.328
22346SOL    HW171885   6.140   9.507   0.253
22346SOL    HW271886   6.113   9.661   0.297
22347SOL     OW71887   6.501   9.399   1.402
22347SOL    HW171888   6.526   9.379   1.307
22347SOL    HW271889   6.573   9.455   1.444
22348SOL     OW71890   6.860   9.696   1.262
22348SOL    HW171891   6.881   9.770   1.326
22348SOL    HW271892   6.771   9.713   1.219
22349SOL     OW71893   6.152   9.847   0.865
22349SOL    HW171894   6.164   9.913   0.791
22349SOL    HW271895   6.198   9.881   0.948
22350SOL     OW71896   7.168   9.949   0.472
22350SOL    HW171897   7.137  10.010   0.545
22350SOL    HW271898   7.218  10.001   0.403
22351SOL     OW71899   6.599   9.415   1.770
22351SOL    HW171900   6.605   9.500   1.718
22351SOL    HW271901   6.631   9.339   1.713
22352SOL     OW71902   6.090   9.360   1.740
22352SOL    HW171903   6.048   9.303   1.670
22352SOL    HW271904   6.024   9.429   1.772
22353SOL     OW71905   6.795   9.835   0.275
22353SOL    HW171906   6.808   9.751   0.329
22353SOL    HW271907   6.766   9.909   0.335
22354SOL     OW71908   5.893   9.523   1.231
22354SOL    HW171909   5.870   9.560   1.321
22354SOL    HW271910   5.863   9.428   1.225
22355SOL     OW71911   6.318   9.944   1.064
22355SOL    HW171912   6.377   9.918   0.988
22355SOL    HW271913   6.290  10.040   1.053
22356SOL     OW71914   5.893   9.373   0.618
22356SOL    HW171915   5.882   9.467   0.651
22356SOL    HW271916   5.888   9.310   0.695
22357SOL     OW71917   7.208   9.677   0.374
22357SOL    HW171918   7.210   9.601   0.438
22357SOL    HW271919   7.160   9.754   0.414
22358SOL     OW71920   5.905  10.120   0.949
22358SOL    HW171921   5.998  10.156   0.954
22358SOL    HW271922   5.899  10.035   1.001
22359SOL     OW71923   5.925   9.819   1.006
22359SOL    HW171924   5.873   9.736   0.989
22359SOL    HW271925   6.002   9.824   0.942
22360SOL     OW71926   6.724   9.690   1.678
22360SOL    HW171927   6.679   9.753   1.742
22360SOL    HW271928   6.817   9.721   1.661
22361SOL     OW71929   6.746   9.517   1.477
22361SOL    HW171930   6.746   9.581   1.554
22361SOL    HW271931   6.774   9.565   1.394
22362SOL     OW71932   5.626   9.854   1.114
22362SOL    HW171933   5.711   9.821   1.073
22362SOL    HW271934   5.639   9.869   1.212
22363SOL     OW71935   5.775   9.830   1.722
22363SOL    HW171936   5.834   9.790   1.652
22363SOL    HW271937   5.717   9.901   1.681
22364SOL     OW71938   6.401   9.882   0.325
22364SOL    HW171939   6.408   9.793   0.279
22364SOL    HW271940   6.307   9.916   0.317
22365SOL     OW71941   7.312   9.445   0.523
22365SOL    HW171942   7.385   9.428   0.456
22365SOL    HW271943   7.281   9.358   0.561
22366SOL     OW71944   7.427   9.485   0.963
22366SOL    HW171945   7.466   9.400   0.927
22366SOL    HW271946   7.329   9.487   0.944
22367SOL     OW71947   5.849   9.636   0.720
22367SOL    HW171948   5.770   9.687   0.686
22367SOL    HW271949   5.840   9.621   0.818
22368SOL     OW71950   6.600   9.546   0.971
22368SOL    HW171951   6.592   9.510   0.878
22368SOL    HW271952   6.598   9.470   1.036
22369SOL     OW71953   6.258   9.513   1.489
22369SOL    HW171954   6.348   9.497   1.449
22369SOL    HW271955   6.266   9.518   1.588
22370SOL     OW71956   5.661   9.655   0.033
22370SOL    HW171957   5.569   9.627   0.004
22370SOL    HW271958   5.692   9.732  -0.023
22371SOL     OW71959   5.658   9.476   0.318
22371SOL    HW171960   5.641   9.559   0.264
22371SOL    HW271961   5.748   9.439   0.296
22372SOL     OW71962   6.302   9.875   1.708
22372SOL    HW171963   6.321   9.940   1.782
22372SOL    HW271964   6.362   9.795   1.717
22373SOL     OW71965   6.811   9.635   0.449
22373SOL    HW171966   6.876   9.561   0.438
22373SOL    HW271967   6.831   9.685   0.533
22374SOL     OW71968   6.669  10.294   0.087
22374SOL    HW171969   6.646  10.347   0.005
22374SOL    HW271970   6.750  10.238   0.068
22375SOL     OW71971   6.014   9.734   0.520
22375SOL    HW171972   6.044   9.662   0.458
22375SOL    HW271973   5.975   9.694   0.603
22376SOL     OW71974   5.903   9.857   1.280
22376SOL    HW171975   5.941   9.798   1.352
22376SOL    HW271976   5.943   9.831   1.192
22377SOL     OW71977   7.010   9.524   1.112
22377SOL    HW171978   7.062   9.459   1.167
22377SOL    HW271979   6.961   9.587   1.173
22378SOL     OW71980   6.587   9.344   1.154
22378SOL    HW171981   6.524   9.272   1.123
22378SOL    HW271982   6.680   9.308   1.154
22379SOL     OW71983   6.886   9.763   0.691
22379SOL    HW171984   6.827   9.843   0.695
22379SOL    HW271985   6.901   9.728   0.784
22380SOL     OW71986   7.179   9.531   0.882
22380SOL    HW171987   7.095   9.530   0.936
22380SOL    HW271988   7.181   9.614   0.826
22381SOL     OW71989   5.811   9.585   2.858
22381SOL    HW171990   5.846   9.568   2.950
22381SOL    HW271991   5.723   9.540   2.846
22382SOL     OW71992   5.605   9.678   2.509
22382SOL    HW171993   5.523   9.721   2.548
22382SOL    HW271994   5.577   9.605   2.446
22383SOL     OW71995   7.341   9.917   2.093
22383SOL    HW171996   7.329   9.904   1.994
22383SOL    HW271997   7.311   9.836   2.142
22384SOL     OW71998   6.024   9.702   3.361
22384SOL    HW171999   6.106   9.646   3.370
22384SOL    HW272000   5.943   9.644   3.365
22385SOL     OW72001   7.189   9.757   2.599
22385SOL    HW172002   7.115   9.803   2.549
22385SOL    HW272003   7.240   9.825   2.652
22386SOL     OW72004   7.180   9.424   3.342
22386SOL    HW172005   7.162   9.491   3.270
22386SOL    HW272006   7.177   9.470   3.431
22387SOL     OW72007   5.708   9.953   2.425
22387SOL    HW172008   5.663   9.865   2.442
22387SOL    HW272009   5.707  10.007   2.509
22388SOL     OW72010   6.395   9.314   2.364
22388SOL    HW172011   6.435   9.405   2.355
22388SOL    HW272012   6.295   9.322   2.370
22389SOL     OW72013   5.903   9.561   3.663
22389SOL    HW172014   5.974   9.632   3.669
22389SOL    HW272015   5.815   9.600   3.691
22390SOL     OW72016   6.867   9.655   2.806
22390SOL    HW172017   6.781   9.605   2.793
22390SOL    HW272018   6.929   9.601   2.862
22391SOL     OW72019   6.393   9.915   3.327
22391SOL    HW172020   6.346   9.912   3.416
22391SOL    HW272021   6.342   9.860   3.261
22392SOL     OW72022   6.980   9.779   3.536
22392SOL    HW172023   6.960   9.822   3.624
22392SOL    HW272024   7.058   9.717   3.545
22393SOL     OW72025   6.577   9.720   3.104
22393SOL    HW172026   6.500   9.754   3.158
22393SOL    HW272027   6.543   9.669   3.025
22394SOL     OW72028   6.627  10.011   2.291
22394SOL    HW172029   6.653  10.007   2.387
22394SOL    HW272030   6.542   9.960   2.277
22395SOL     OW72031   6.451   9.658   2.057
22395SOL    HW172032   6.510   9.721   2.008
22395SOL    HW272033   6.470   9.564   2.028
22396SOL     OW72034   7.305   9.895   3.693
22396SOL    HW172035   7.279   9.984   3.657
22396SOL    HW272036   7.303   9.827   3.620
22397SOL     OW72037   6.136   9.506   2.747
22397SOL    HW172038   6.131   9.501   2.847
22397SOL    HW272039   6.138   9.602   2.718
22398SOL     OW72040   5.788   9.595   3.360
22398SOL    HW172041   5.708   9.655   3.347
22398SOL    HW272042   5.778   9.546   3.446
22399SOL     OW72043   6.986   9.417   2.288
22399SOL    HW172044   6.962   9.380   2.198
22399SOL    HW272045   7.085   9.433   2.292
22400SOL     OW72046   7.133   9.532   3.591
22400SOL    HW172047   7.128   9.569   3.683
22400SOL    HW272048   7.061   9.463   3.579
22401SOL     OW72049   6.200   9.432   1.979
22401SOL    HW172050   6.298   9.410   1.986
22401SOL    HW272051   6.169   9.415   1.886
22402SOL     OW72052   6.367   9.574   3.611
22402SOL    HW172053   6.434   9.513   3.654
22402SOL    HW272054   6.294   9.593   3.676
22403SOL     OW72055   6.937   9.900   3.295
22403SOL    HW172056   6.965   9.857   3.380
22403SOL    HW272057   6.962   9.996   3.296
22404SOL     OW72058   6.508   9.813   2.761
22404SOL    HW172059   6.483   9.804   2.665
22404SOL    HW272060   6.556   9.731   2.792
22405SOL     OW72061   6.125   9.374   2.374
22405SOL    HW172062   6.044   9.375   2.432
22405SOL    HW272063   6.128   9.457   2.319
22406SOL     OW72064   5.883   9.345   2.033
22406SOL    HW172065   5.932   9.429   2.012
22406SOL    HW272066   5.945   9.280   2.078
22407SOL     OW72067   6.521   9.546   2.342
22407SOL    HW172068   6.473   9.587   2.264
22407SOL    HW272069   6.620   9.544   2.323
22408SOL     OW72070   6.662   9.993   3.326
22408SOL    HW172071   6.582   9.932   3.329
22408SOL    HW272072   6.743   9.940   3.302
22409SOL     OW72073   6.618   9.859   1.878
22409SOL    HW172074   6.577   9.941   1.839
22409SOL    HW272075   6.682   9.885   1.951
22410SOL     OW72076   5.664   9.866   3.248
22410SOL    HW172077   5.756   9.865   3.207
22410SOL    HW272078   5.658   9.940   3.315
22411SOL     OW72079   6.147   9.532   3.009
22411SOL    HW172080   6.185   9.448   3.046
22411SOL    HW272081   6.059   9.551   3.053
22412SOL     OW72082   6.452   9.764   2.504
22412SOL    HW172083   6.420   9.836   2.442
22412SOL    HW272084   6.476   9.683   2.451
22413SOL     OW72085   6.603   9.349   2.615
22413SOL    HW172086   6.531   9.354   2.546
22413SOL    HW272087   6.579   9.280   2.684
22414SOL     OW72088   7.052   9.900   2.854
22414SOL    HW172089   7.022   9.805   2.861
22414SOL    HW272090   7.125   9.916   2.920
22415SOL     OW72091   6.501   9.399   3.264
22415SOL    HW172092   6.526   9.379   3.169
22415SOL    HW272093   6.573   9.455   3.306
22416SOL     OW72094   6.860   9.696   3.124
22416SOL    HW172095   6.881   9.770   3.188
22416SOL    HW272096   6.771   9.713   3.081
22417SOL     OW72097   6.152   9.847   2.727
22417SOL    HW172098   6.164   9.913   2.653
22417SOL    HW272099   6.198   9.881   2.810
22418SOL     OW72100   6.599   9.415   3.632
22418SOL    HW172101   6.605   9.500   3.580
22418SOL    HW272102   6.631   9.339   3.575
22419SOL     OW72103   6.090   9.360   3.602
22419SOL    HW172104   6.048   9.303   3.532
22419SOL    HW272105   6.024   9.429   3.634
22420SOL     OW72106   6.795   9.835   2.137
22420SOL    HW172107   6.808   9.751   2.191
22420SOL    HW272108   6.766   9.909   2.197
22421SOL     OW72109   5.893   9.523   3.093
22421SOL    HW172110   5.870   9.560   3.183
22421SOL    HW272111   5.863   9.428   3.087
22422SOL     OW72112   6.318   9.944   2.926
22422SOL    HW172113   6.377   9.918   2.850
22422SOL    HW272114   6.290  10.040   2.915
22423SOL     OW72115   5.893   9.373   2.480
22423SOL    HW172116   5.882   9.467   2.513
22423SOL    HW272117   5.888   9.310   2.557
22424SOL     OW72118   7.208   9.677   2.236
22424SOL    HW172119   7.210   9.601   2.300
22424SOL    HW272120   7.160   9.754   2.276
22425SOL     OW72121   7.126   9.584   1.987
22425SOL    HW172122   7.065   9.509   2.010
22425SOL    HW272123   7.148   9.636   2.070
22426SOL     OW72124   5.905  10.120   2.811
22426SOL    HW172125   5.998  10.156   2.816
22426SOL    HW272126   5.899  10.035   2.863
22427SOL     OW72127   5.925   9.819   2.868
22427SOL    HW172128   5.873   9.736   2.851
22427SOL    HW272129   6.002   9.824   2.804
22428SOL     OW72130   6.724   9.690   3.540
22428SOL    HW172131   6.679   9.753   3.604
22428SOL    HW272132   6.817   9.721   3.523
22429SOL     OW72133   6.746   9.517   3.339
22429SOL    HW172134   6.746   9.581   3.416
22429SOL    HW272135   6.774   9.565   3.256
22430SOL     OW72136   5.626   9.854   2.976
22430SOL    HW172137   5.711   9.821   2.935
22430SOL    HW272138   5.639   9.869   3.074
22431SOL     OW72139   5.775   9.830   3.584
22431SOL    HW172140   5.834   9.790   3.514
22431SOL    HW272141   5.717   9.901   3.543
22432SOL     OW72142   6.401   9.882   2.187
22432SOL    HW172143   6.408   9.793   2.141
22432SOL    HW272144   6.307   9.916   2.179
22433SOL     OW72145   7.243   9.914   3.068
22433SOL    HW172146   7.205   9.845   3.130
22433SOL    HW272147   7.325   9.878   3.024
22434SOL     OW72148   6.257   9.774   3.131
22434SOL    HW172149   6.223   9.685   3.101
22434SOL    HW272150   6.283   9.828   3.051
22435SOL     OW72151   7.427   9.485   2.825
22435SOL    HW172152   7.466   9.400   2.789
22435SOL    HW272153   7.329   9.487   2.806
22436SOL     OW72154   5.849   9.636   2.582
22436SOL    HW172155   5.770   9.687   2.548
22436SOL    HW272156   5.840   9.621   2.680
22437SOL     OW72157   6.600   9.546   2.833
22437SOL    HW172158   6.592   9.510   2.740
22437SOL    HW272159   6.598   9.470   2.898
22438SOL     OW72160   7.295   9.695   3.243
22438SOL    HW172161   7.368   9.764   3.247
22438SOL    HW272162   7.323   9.620   3.184
22439SOL     OW72163   6.258   9.513   3.351
22439SOL    HW172164   6.348   9.497   3.311
22439SOL    HW272165   6.266   9.518   3.450
22440SOL     OW72166   5.661   9.655   1.895
22440SOL    HW172167   5.569   9.627   1.866
22440SOL    HW272168   5.692   9.732   1.839
22441SOL     OW72169   5.658   9.476   2.180
22441SOL    HW172170   5.641   9.559   2.126
22441SOL    HW272171   5.748   9.439   2.158
22442SOL     OW72172   6.302   9.875   3.570
22442SOL    HW172173   6.321   9.940   3.644
22442SOL    HW272174   6.362   9.795   3.579
22443SOL     OW72175   6.811   9.635   2.311
22443SOL    HW172176   6.876   9.561   2.300
22443SOL    HW272177   6.831   9.685   2.395
22444SOL     OW72178   7.363   9.652   3.504
22444SOL    HW172179   7.346   9.683   3.410
22444SOL    HW272180   7.279   9.615   3.542
22445SOL     OW72181   6.669  10.294   1.949
22445SOL    HW172182   6.646  10.347   1.867
22445SOL    HW272183   6.750  10.238   1.930
22446SOL     OW72184   7.410   9.502   3.089
22446SOL    HW172185   7.406   9.412   3.133
22446SOL    HW272186   7.413   9.491   2.990
22447SOL     OW72187   6.014   9.734   2.382
22447SOL    HW172188   6.044   9.662   2.320
22447SOL    HW272189   5.975   9.694   2.465
22448SOL     OW72190   5.903   9.857   3.142
22448SOL    HW172191   5.941   9.798   3.214
22448SOL    HW272192   5.943   9.831   3.054
22449SOL     OW72193   7.010   9.524   2.974
22449SOL    HW172194   7.062   9.459   3.029
22449SOL    HW272195   6.961   9.587   3.035
22450SOL     OW72196   6.587   9.344   3.016
22450SOL    HW172197   6.524   9.272   2.985
22450SOL    HW272198   6.680   9.308   3.016
22451SOL     OW72199   6.938   9.362   2.030
22451SOL    HW172200   6.973   9.321   1.946
22451SOL    HW272201   6.848   9.324   2.050
22452SOL     OW72202   7.179   9.531   2.744
22452SOL    HW172203   7.095   9.530   2.798
22452SOL    HW272204   7.181   9.614   2.688
22453SOL     OW72205   7.341   9.917   3.955
22453SOL    HW172206   7.329   9.904   3.856
22453SOL    HW272207   7.311   9.836   4.004
22454SOL     OW72208   6.024   9.702   5.223
22454SOL    HW172209   6.106   9.646   5.232
22454SOL    HW272210   5.943   9.644   5.227
22455SOL     OW72211   7.189   9.757   4.461
22455SOL    HW172212   7.115   9.803   4.411
22455SOL    HW272213   7.240   9.825   4.514
22456SOL     OW72214   7.180   9.424   5.204
22456SOL    HW172215   7.162   9.491   5.132
22456SOL    HW272216   7.177   9.470   5.293
22457SOL     OW72217   5.708   9.953   4.287
22457SOL    HW172218   5.663   9.865   4.304
22457SOL    HW272219   5.707  10.007   4.371
22458SOL     OW72220   6.395   9.314   4.226
22458SOL    HW172221   6.435   9.405   4.217
22458SOL    HW272222   6.295   9.322   4.232
22459SOL     OW72223   5.903   9.561   5.525
22459SOL    HW172224   5.974   9.632   5.531
22459SOL    HW272225   5.815   9.600   5.553
22460SOL     OW72226   6.867   9.655   4.668
22460SOL    HW172227   6.781   9.605   4.655
22460SOL    HW272228   6.929   9.601   4.724
22461SOL     OW72229   6.393   9.915   5.189
22461SOL    HW172230   6.346   9.912   5.278
22461SOL    HW272231   6.342   9.860   5.123
22462SOL     OW72232   6.980   9.779   5.398
22462SOL    HW172233   6.960   9.822   5.486
22462SOL    HW272234   7.058   9.717   5.407
22463SOL     OW72235   6.577   9.720   4.966
22463SOL    HW172236   6.500   9.754   5.020
22463SOL    HW272237   6.543   9.669   4.887
22464SOL     OW72238   6.627  10.011   4.153
22464SOL    HW172239   6.653  10.007   4.249
22464SOL    HW272240   6.542   9.960   4.139
22465SOL     OW72241   6.451   9.658   3.919
22465SOL    HW172242   6.510   9.721   3.870
22465SOL    HW272243   6.470   9.564   3.890
22466SOL     OW72244   7.305   9.895   5.555
22466SOL    HW172245   7.279   9.984   5.519
22466SOL    HW272246   7.303   9.827   5.482
22467SOL     OW72247   6.136   9.506   4.609
22467SOL    HW172248   6.131   9.501   4.709
22467SOL    HW272249   6.138   9.602   4.580
22468SOL     OW72250   7.044  10.045   4.452
22468SOL    HW172251   7.039   9.980   4.527
22468SOL    HW272252   7.124  10.104   4.465
22469SOL     OW72253   5.788   9.595   5.222
22469SOL    HW172254   5.708   9.655   5.209
22469SOL    HW272255   5.778   9.546   5.308
22470SOL     OW72256   7.133   9.532   5.453
22470SOL    HW172257   7.128   9.569   5.545
22470SOL    HW272258   7.061   9.463   5.441
22471SOL     OW72259   6.200   9.432   3.841
22471SOL    HW172260   6.298   9.410   3.848
22471SOL    HW272261   6.169   9.415   3.748
22472SOL     OW72262   6.367   9.574   5.473
22472SOL    HW172263   6.434   9.513   5.516
22472SOL    HW272264   6.294   9.593   5.538
22473SOL     OW72265   6.937   9.900   5.157
22473SOL    HW172266   6.965   9.857   5.242
22473SOL    HW272267   6.962   9.996   5.158
22474SOL     OW72268   6.508   9.813   4.623
22474SOL    HW172269   6.483   9.804   4.527
22474SOL    HW272270   6.556   9.731   4.654
22475SOL     OW72271   6.125   9.374   4.236
22475SOL    HW172272   6.044   9.375   4.294
22475SOL    HW272273   6.128   9.457   4.181
22476SOL     OW72274   5.883   9.345   3.895
22476SOL    HW172275   5.932   9.429   3.874
22476SOL    HW272276   5.945   9.280   3.940
22477SOL     OW72277   6.521   9.546   4.204
22477SOL    HW172278   6.473   9.587   4.126
22477SOL    HW272279   6.620   9.544   4.185
22478SOL     OW72280   6.662   9.993   5.188
22478SOL    HW172281   6.582   9.932   5.191
22478SOL    HW272282   6.743   9.940   5.164
22479SOL     OW72283   6.618   9.859   3.740
22479SOL    HW172284   6.577   9.941   3.701
22479SOL    HW272285   6.682   9.885   3.813
22480SOL     OW72286   6.147   9.532   4.871
22480SOL    HW172287   6.185   9.448   4.908
22480SOL    HW272288   6.059   9.551   4.915
22481SOL     OW72289   6.452   9.764   4.366
22481SOL    HW172290   6.420   9.836   4.304
22481SOL    HW272291   6.476   9.683   4.313
22482SOL     OW72292   6.603   9.349   4.477
22482SOL    HW172293   6.531   9.354   4.408
22482SOL    HW272294   6.579   9.280   4.546
22483SOL     OW72295   7.052   9.900   4.716
22483SOL    HW172296   7.022   9.805   4.723
22483SOL    HW272297   7.125   9.916   4.782
22484SOL     OW72298   6.113   9.566   4.052
22484SOL    HW172299   6.140   9.507   3.977
22484SOL    HW272300   6.113   9.661   4.021
22485SOL     OW72301   6.501   9.399   5.126
22485SOL    HW172302   6.526   9.379   5.031
22485SOL    HW272303   6.573   9.455   5.168
22486SOL     OW72304   6.860   9.696   4.986
22486SOL    HW172305   6.881   9.770   5.050
22486SOL    HW272306   6.771   9.713   4.943
22487SOL     OW72307   6.152   9.847   4.589
22487SOL    HW172308   6.164   9.913   4.515
22487SOL    HW272309   6.198   9.881   4.672
22488SOL     OW72310   7.168   9.949   4.196
22488SOL    HW172311   7.137  10.010   4.269
22488SOL    HW272312   7.218  10.001   4.127
22489SOL     OW72313   6.599   9.415   5.494
22489SOL    HW172314   6.605   9.500   5.442
22489SOL    HW272315   6.631   9.339   5.437
22490SOL     OW72316   6.090   9.360   5.464
22490SOL    HW172317   6.048   9.303   5.394
22490SOL    HW272318   6.024   9.429   5.496
22491SOL     OW72319   6.795   9.835   3.999
22491SOL    HW172320   6.808   9.751   4.053
22491SOL    HW272321   6.766   9.909   4.059
22492SOL     OW72322   6.318   9.944   4.788
22492SOL    HW172323   6.377   9.918   4.712
22492SOL    HW272324   6.290  10.040   4.777
22493SOL     OW72325   5.893   9.373   4.342
22493SOL    HW172326   5.882   9.467   4.375
22493SOL    HW272327   5.888   9.310   4.419
22494SOL     OW72328   7.208   9.677   4.098
22494SOL    HW172329   7.210   9.601   4.162
22494SOL    HW272330   7.160   9.754   4.138
22495SOL     OW72331   7.126   9.584   3.849
22495SOL    HW172332   7.065   9.509   3.872
22495SOL    HW272333   7.148   9.636   3.932
22496SOL     OW72334   5.905  10.120   4.673
22496SOL    HW172335   5.998  10.156   4.678
22496SOL    HW272336   5.899  10.035   4.725
22497SOL     OW72337   6.724   9.690   5.402
22497SOL    HW172338   6.679   9.753   5.466
22497SOL    HW272339   6.817   9.721   5.385
22498SOL     OW72340   6.746   9.517   5.201
22498SOL    HW172341   6.746   9.581   5.278
22498SOL    HW272342   6.774   9.565   5.118
22499SOL     OW72343   5.775   9.830   5.446
22499SOL    HW172344   5.834   9.790   5.376
22499SOL    HW272345   5.717   9.901   5.405
22500SOL     OW72346   6.401   9.882   4.049
22500SOL    HW172347   6.408   9.793   4.003
22500SOL    HW272348   6.307   9.916   4.041
22501SOL     OW72349   7.243   9.914   4.930
22501SOL    HW172350   7.205   9.845   4.992
22501SOL    HW272351   7.325   9.878   4.886
22502SOL     OW72352   6.257   9.774   4.993
22502SOL    HW172353   6.223   9.685   4.963
22502SOL    HW272354   6.283   9.828   4.913
22503SOL     OW72355   7.312   9.445   4.247
22503SOL    HW172356   7.385   9.428   4.180
22503SOL    HW272357   7.281   9.358   4.285
22504SOL     OW72358   7.427   9.485   4.687
22504SOL    HW172359   7.466   9.400   4.651
22504SOL    HW272360   7.329   9.487   4.668
22505SOL     OW72361   5.849   9.636   4.444
22505SOL    HW172362   5.770   9.687   4.410
22505SOL    HW272363   5.840   9.621   4.542
22506SOL     OW72364   6.600   9.546   4.695
22506SOL    HW172365   6.592   9.510   4.602
22506SOL    HW272366   6.598   9.470   4.760
22507SOL     OW72367   7.295   9.695   5.105
22507SOL    HW172368   7.368   9.764   5.109
22507SOL    HW272369   7.323   9.620   5.046
22508SOL     OW72370   6.258   9.513   5.213
22508SOL    HW172371   6.348   9.497   5.173
22508SOL    HW272372   6.266   9.518   5.312
22509SOL     OW72373   5.661   9.655   3.757
22509SOL    HW172374   5.569   9.627   3.728
22509SOL    HW272375   5.692   9.732   3.701
22510SOL     OW72376   5.658   9.476   4.042
22510SOL    HW172377   5.641   9.559   3.988
22510SOL    HW272378   5.748   9.439   4.020
22511SOL     OW72379   6.302   9.875   5.432
22511SOL    HW172380   6.321   9.940   5.506
22511SOL    HW272381   6.362   9.795   5.441
22512SOL     OW72382   6.811   9.635   4.173
22512SOL    HW172383   6.876   9.561   4.162
22512SOL    HW272384   6.831   9.685   4.257
22513SOL     OW72385   7.363   9.652   5.366
22513SOL    HW172386   7.346   9.683   5.272
22513SOL    HW272387   7.279   9.615   5.404
22514SOL     OW72388   6.669  10.294   3.811
22514SOL    HW172389   6.646  10.347   3.729
22514SOL    HW272390   6.750  10.238   3.792
22515SOL     OW72391   7.410   9.502   4.951
22515SOL    HW172392   7.406   9.412   4.995
22515SOL    HW272393   7.413   9.491   4.852
22516SOL     OW72394   6.014   9.734   4.244
22516SOL    HW172395   6.044   9.662   4.182
22516SOL    HW272396   5.975   9.694   4.327
22517SOL     OW72397   7.010   9.524   4.836
22517SOL    HW172398   7.062   9.459   4.891
22517SOL    HW272399   6.961   9.587   4.897
22518SOL     OW72400   6.587   9.344   4.878
22518SOL    HW172401   6.524   9.272   4.847
22518SOL    HW272402   6.680   9.308   4.878
22519SOL     OW72403   6.938   9.362   3.892
22519SOL    HW172404   6.973   9.321   3.808
22519SOL    HW272405   6.848   9.324   3.912
22520SOL     OW72406   6.886   9.763   4.415
22520SOL    HW172407   6.827   9.843   4.419
22520SOL    HW272408   6.901   9.728   4.508
22521SOL     OW72409   7.179   9.531   4.606
22521SOL    HW172410   7.095   9.530   4.660
22521SOL    HW272411   7.181   9.614   4.550
22522SOL     OW72412   5.811   9.585   6.582
22522SOL    HW172413   5.846   9.568   6.674
22522SOL    HW272414   5.723   9.540   6.570
22523SOL     OW72415   5.605   9.678   6.233
22523SOL    HW172416   5.523   9.721   6.272
22523SOL    HW272417   5.577   9.605   6.170
22524SOL     OW72418   7.341   9.917   5.817
22524SOL    HW172419   7.329   9.904   5.718
22524SOL    HW272420   7.311   9.836   5.866
22525SOL     OW72421   7.189   9.757   6.323
22525SOL    HW172422   7.115   9.803   6.273
22525SOL    HW272423   7.240   9.825   6.376
22526SOL     OW72424   7.180   9.424   7.066
22526SOL    HW172425   7.162   9.491   6.994
22526SOL    HW272426   7.177   9.470   7.155
22527SOL     OW72427   5.708   9.953   6.149
22527SOL    HW172428   5.663   9.865   6.166
22527SOL    HW272429   5.707  10.007   6.233
22528SOL     OW72430   6.395   9.314   6.088
22528SOL    HW172431   6.435   9.405   6.079
22528SOL    HW272432   6.295   9.322   6.094
22529SOL     OW72433   5.903   9.561   7.387
22529SOL    HW172434   5.974   9.632   7.393
22529SOL    HW272435   5.815   9.600   7.415
22530SOL     OW72436   6.867   9.655   6.530
22530SOL    HW172437   6.781   9.605   6.517
22530SOL    HW272438   6.929   9.601   6.586
22531SOL     OW72439   6.393   9.915   7.051
22531SOL    HW172440   6.346   9.912   7.140
22531SOL    HW272441   6.342   9.860   6.985
22532SOL     OW72442   6.577   9.720   6.828
22532SOL    HW172443   6.500   9.754   6.882
22532SOL    HW272444   6.543   9.669   6.749
22533SOL     OW72445   6.627  10.011   6.015
22533SOL    HW172446   6.653  10.007   6.111
22533SOL    HW272447   6.542   9.960   6.001
22534SOL     OW72448   6.451   9.658   5.781
22534SOL    HW172449   6.510   9.721   5.732
22534SOL    HW272450   6.470   9.564   5.752
22535SOL     OW72451   7.305   9.895   7.417
22535SOL    HW172452   7.279   9.984   7.381
22535SOL    HW272453   7.303   9.827   7.344
22536SOL     OW72454   6.136   9.506   6.471
22536SOL    HW172455   6.131   9.501   6.571
22536SOL    HW272456   6.138   9.602   6.442
22537SOL     OW72457   5.788   9.595   7.084
22537SOL    HW172458   5.708   9.655   7.071
22537SOL    HW272459   5.778   9.546   7.170
22538SOL     OW72460   6.986   9.417   6.012
22538SOL    HW172461   6.962   9.380   5.922
22538SOL    HW272462   7.085   9.433   6.016
22539SOL     OW72463   6.200   9.432   5.703
22539SOL    HW172464   6.298   9.410   5.710
22539SOL    HW272465   6.169   9.415   5.610
22540SOL     OW72466   6.937   9.900   7.019
22540SOL    HW172467   6.965   9.857   7.104
22540SOL    HW272468   6.962   9.996   7.020
22541SOL     OW72469   6.508   9.813   6.485
22541SOL    HW172470   6.483   9.804   6.389
22541SOL    HW272471   6.556   9.731   6.516
22542SOL     OW72472   6.125   9.374   6.098
22542SOL    HW172473   6.044   9.375   6.156
22542SOL    HW272474   6.128   9.457   6.043
22543SOL     OW72475   5.883   9.345   5.757
22543SOL    HW172476   5.932   9.429   5.736
22543SOL    HW272477   5.945   9.280   5.802
22544SOL     OW72478   6.521   9.546   6.066
22544SOL    HW172479   6.473   9.587   5.988
22544SOL    HW272480   6.620   9.544   6.047
22545SOL     OW72481   6.662   9.993   7.050
22545SOL    HW172482   6.582   9.932   7.053
22545SOL    HW272483   6.743   9.940   7.026
22546SOL     OW72484   6.618   9.859   5.602
22546SOL    HW172485   6.577   9.941   5.563
22546SOL    HW272486   6.682   9.885   5.675
22547SOL     OW72487   6.147   9.532   6.733
22547SOL    HW172488   6.185   9.448   6.770
22547SOL    HW272489   6.059   9.551   6.777
22548SOL     OW72490   6.452   9.764   6.228
22548SOL    HW172491   6.420   9.836   6.166
22548SOL    HW272492   6.476   9.683   6.175
22549SOL     OW72493   6.603   9.349   6.339
22549SOL    HW172494   6.531   9.354   6.270
22549SOL    HW272495   6.579   9.280   6.408
22550SOL     OW72496   7.052   9.900   6.578
22550SOL    HW172497   7.022   9.805   6.585
22550SOL    HW272498   7.125   9.916   6.644
22551SOL     OW72499   6.113   9.566   5.914
22551SOL    HW172500   6.140   9.507   5.839
22551SOL    HW272501   6.113   9.661   5.883
22552SOL     OW72502   6.860   9.696   6.848
22552SOL    HW172503   6.881   9.770   6.912
22552SOL    HW272504   6.771   9.713   6.805
22553SOL     OW72505   6.152   9.847   6.451
22553SOL    HW172506   6.164   9.913   6.377
22553SOL    HW272507   6.198   9.881   6.534
22554SOL     OW72508   7.168   9.949   6.058
22554SOL    HW172509   7.137  10.010   6.131
22554SOL    HW272510   7.218  10.001   5.989
22555SOL     OW72511   6.090   9.360   7.326
22555SOL    HW172512   6.048   9.303   7.256
22555SOL    HW272513   6.024   9.429   7.358
22556SOL     OW72514   6.795   9.835   5.861
22556SOL    HW172515   6.808   9.751   5.915
22556SOL    HW272516   6.766   9.909   5.921
22557SOL     OW72517   5.893   9.523   6.817
22557SOL    HW172518   5.870   9.560   6.907
22557SOL    HW272519   5.863   9.428   6.811
22558SOL     OW72520   6.318   9.944   6.650
22558SOL    HW172521   6.377   9.918   6.574
22558SOL    HW272522   6.290  10.040   6.639
22559SOL     OW72523   5.893   9.373   6.204
22559SOL    HW172524   5.882   9.467   6.237
22559SOL    HW272525   5.888   9.310   6.281
22560SOL     OW72526   7.208   9.677   5.960
22560SOL    HW172527   7.210   9.601   6.024
22560SOL    HW272528   7.160   9.754   6.000
22561SOL     OW72529   7.126   9.584   5.711
22561SOL    HW172530   7.065   9.509   5.734
22561SOL    HW272531   7.148   9.636   5.794
22562SOL     OW72532   5.905  10.120   6.535
22562SOL    HW172533   5.998  10.156   6.540
22562SOL    HW272534   5.899  10.035   6.587
22563SOL     OW72535   5.925   9.819   6.592
22563SOL    HW172536   5.873   9.736   6.575
22563SOL    HW272537   6.002   9.824   6.528
22564SOL     OW72538   6.724   9.690   7.264
22564SOL    HW172539   6.679   9.753   7.328
22564SOL    HW272540   6.817   9.721   7.247
22565SOL     OW72541   6.746   9.517   7.063
22565SOL    HW172542   6.746   9.581   7.140
22565SOL    HW272543   6.774   9.565   6.980
22566SOL     OW72544   5.626   9.854   6.700
22566SOL    HW172545   5.711   9.821   6.659
22566SOL    HW272546   5.639   9.869   6.798
22567SOL     OW72547   5.775   9.830   7.308
22567SOL    HW172548   5.834   9.790   7.238
22567SOL    HW272549   5.717   9.901   7.267
22568SOL     OW72550   6.401   9.882   5.911
22568SOL    HW172551   6.408   9.793   5.865
22568SOL    HW272552   6.307   9.916   5.903
22569SOL     OW72553   7.243   9.914   6.792
22569SOL    HW172554   7.205   9.845   6.854
22569SOL    HW272555   7.325   9.878   6.748
22570SOL     OW72556   6.257   9.774   6.855
22570SOL    HW172557   6.223   9.685   6.825
22570SOL    HW272558   6.283   9.828   6.775
22571SOL     OW72559   7.312   9.445   6.109
22571SOL    HW172560   7.385   9.428   6.042
22571SOL    HW272561   7.281   9.358   6.147
22572SOL     OW72562   7.427   9.485   6.549
22572SOL    HW172563   7.466   9.400   6.513
22572SOL    HW272564   7.329   9.487   6.530
22573SOL     OW72565   5.849   9.636   6.306
22573SOL    HW172566   5.770   9.687   6.272
22573SOL    HW272567   5.840   9.621   6.404
22574SOL     OW72568   6.600   9.546   6.557
22574SOL    HW172569   6.592   9.510   6.464
22574SOL    HW272570   6.598   9.470   6.622
22575SOL     OW72571   7.295   9.695   6.967
22575SOL    HW172572   7.368   9.764   6.971
22575SOL    HW272573   7.323   9.620   6.908
22576SOL     OW72574   5.661   9.655   5.619
22576SOL    HW172575   5.569   9.627   5.590
22576SOL    HW272576   5.692   9.732   5.563
22577SOL     OW72577   5.658   9.476   5.904
22577SOL    HW172578   5.641   9.559   5.850
22577SOL    HW272579   5.748   9.439   5.882
22578SOL     OW72580   6.302   9.875   7.294
22578SOL    HW172581   6.321   9.940   7.368
22578SOL    HW272582   6.362   9.795   7.303
22579SOL     OW72583   6.811   9.635   6.035
22579SOL    HW172584   6.876   9.561   6.024
22579SOL    HW272585   6.831   9.685   6.119
22580SOL     OW72586   7.363   9.652   7.228
22580SOL    HW172587   7.346   9.683   7.134
22580SOL    HW272588   7.279   9.615   7.266
22581SOL     OW72589   6.669  10.294   5.673
22581SOL    HW172590   6.646  10.347   5.591
22581SOL    HW272591   6.750  10.238   5.654
22582SOL     OW72592   7.410   9.502   6.813
22582SOL    HW172593   7.406   9.412   6.857
22582SOL    HW272594   7.413   9.491   6.714
22583SOL     OW72595   6.014   9.734   6.106
22583SOL    HW172596   6.044   9.662   6.044
22583SOL    HW272597   5.975   9.694   6.189
22584SOL     OW72598   5.903   9.857   6.866
22584SOL    HW172599   5.941   9.798   6.938
22584SOL    HW272600   5.943   9.831   6.778
22585SOL     OW72601   7.010   9.524   6.698
22585SOL    HW172602   7.062   9.459   6.753
22585SOL    HW272603   6.961   9.587   6.759
22586SOL     OW72604   6.587   9.344   6.740
22586SOL    HW172605   6.524   9.272   6.709
22586SOL    HW272606   6.680   9.308   6.740
22587SOL     OW72607   6.938   9.362   5.754
22587SOL    HW172608   6.973   9.321   5.670
22587SOL    HW272609   6.848   9.324   5.774
22588SOL     OW72610   6.886   9.763   6.277
22588SOL    HW172611   6.827   9.843   6.281
22588SOL    HW272612   6.901   9.728   6.370
22589SOL     OW72613   7.179   9.531   6.468
22589SOL    HW172614   7.095   9.530   6.522
22589SOL    HW272615   7.181   9.614   6.412
22590SOL     OW72616   5.811   9.585   8.444
22590SOL    HW172617   5.846   9.568   8.536
22590SOL    HW272618   5.723   9.540   8.432
22591SOL     OW72619   5.605   9.678   8.095
22591SOL    HW172620   5.523   9.721   8.134
22591SOL    HW272621   5.577   9.605   8.032
22592SOL     OW72622   7.341   9.917   7.679
22592SOL    HW172623   7.329   9.904   7.580
22592SOL    HW272624   7.311   9.836   7.728
22593SOL     OW72625   6.024   9.702   8.947
22593SOL    HW172626   6.106   9.646   8.956
22593SOL    HW272627   5.943   9.644   8.951
22594SOL     OW72628   7.189   9.757   8.185
22594SOL    HW172629   7.115   9.803   8.135
22594SOL    HW272630   7.240   9.825   8.238
22595SOL     OW72631   7.180   9.424   8.928
22595SOL    HW172632   7.162   9.491   8.856
22595SOL    HW272633   7.177   9.470   9.017
22596SOL     OW72634   5.708   9.953   8.011
22596SOL    HW172635   5.663   9.865   8.028
22596SOL    HW272636   5.707  10.007   8.095
22597SOL     OW72637   6.395   9.314   7.950
22597SOL    HW172638   6.435   9.405   7.941
22597SOL    HW272639   6.295   9.322   7.956
22598SOL     OW72640   5.903   9.561   9.249
22598SOL    HW172641   5.974   9.632   9.255
22598SOL    HW272642   5.815   9.600   9.277
22599SOL     OW72643   6.867   9.655   8.392
22599SOL    HW172644   6.781   9.605   8.379
22599SOL    HW272645   6.929   9.601   8.448
22600SOL     OW72646   6.393   9.915   8.913
22600SOL    HW172647   6.346   9.912   9.002
22600SOL    HW272648   6.342   9.860   8.847
22601SOL     OW72649   6.577   9.720   8.690
22601SOL    HW172650   6.500   9.754   8.744
22601SOL    HW272651   6.543   9.669   8.611
22602SOL     OW72652   6.627  10.011   7.877
22602SOL    HW172653   6.653  10.007   7.973
22602SOL    HW272654   6.542   9.960   7.863
22603SOL     OW72655   6.451   9.658   7.643
22603SOL    HW172656   6.510   9.721   7.594
22603SOL    HW272657   6.470   9.564   7.614
22604SOL     OW72658   7.305   9.895   9.279
22604SOL    HW172659   7.279   9.984   9.243
22604SOL    HW272660   7.303   9.827   9.206
22605SOL     OW72661   6.136   9.506   8.333
22605SOL    HW172662   6.131   9.501   8.433
22605SOL    HW272663   6.138   9.602   8.304
22606SOL     OW72664   7.044  10.045   8.176
22606SOL    HW172665   7.039   9.980   8.251
22606SOL    HW272666   7.124  10.104   8.189
22607SOL     OW72667   5.788   9.595   8.946
22607SOL    HW172668   5.708   9.655   8.933
22607SOL    HW272669   5.778   9.546   9.032
22608SOL     OW72670   7.133   9.532   9.177
22608SOL    HW172671   7.128   9.569   9.269
22608SOL    HW272672   7.061   9.463   9.165
22609SOL     OW72673   6.200   9.432   7.565
22609SOL    HW172674   6.298   9.410   7.572
22609SOL    HW272675   6.169   9.415   7.472
22610SOL     OW72676   6.367   9.574   9.197
22610SOL    HW172677   6.434   9.513   9.240
22610SOL    HW272678   6.294   9.593   9.262
22611SOL     OW72679   6.508   9.813   8.347
22611SOL    HW172680   6.483   9.804   8.251
22611SOL    HW272681   6.556   9.731   8.378
22612SOL     OW72682   6.125   9.374   7.960
22612SOL    HW172683   6.044   9.375   8.018
22612SOL    HW272684   6.128   9.457   7.905
22613SOL     OW72685   5.883   9.345   7.619
22613SOL    HW172686   5.932   9.429   7.598
22613SOL    HW272687   5.945   9.280   7.664
22614SOL     OW72688   6.521   9.546   7.928
22614SOL    HW172689   6.473   9.587   7.850
22614SOL    HW272690   6.620   9.544   7.909
22615SOL     OW72691   6.618   9.859   7.464
22615SOL    HW172692   6.577   9.941   7.425
22615SOL    HW272693   6.682   9.885   7.537
22616SOL     OW72694   5.664   9.866   8.834
22616SOL    HW172695   5.756   9.865   8.793
22616SOL    HW272696   5.658   9.940   8.901
22617SOL     OW72697   6.147   9.532   8.595
22617SOL    HW172698   6.185   9.448   8.632
22617SOL    HW272699   6.059   9.551   8.639
22618SOL     OW72700   6.452   9.764   8.090
22618SOL    HW172701   6.420   9.836   8.028
22618SOL    HW272702   6.476   9.683   8.037
22619SOL     OW72703   6.603   9.349   8.201
22619SOL    HW172704   6.531   9.354   8.132
22619SOL    HW272705   6.579   9.280   8.270
22620SOL     OW72706   7.052   9.900   8.440
22620SOL    HW172707   7.022   9.805   8.447
22620SOL    HW272708   7.125   9.916   8.506
22621SOL     OW72709   6.113   9.566   7.776
22621SOL    HW172710   6.140   9.507   7.701
22621SOL    HW272711   6.113   9.661   7.745
22622SOL     OW72712   6.501   9.399   8.850
22622SOL    HW172713   6.526   9.379   8.755
22622SOL    HW272714   6.573   9.455   8.892
22623SOL     OW72715   6.860   9.696   8.710
22623SOL    HW172716   6.881   9.770   8.774
22623SOL    HW272717   6.771   9.713   8.667
22624SOL     OW72718   6.152   9.847   8.313
22624SOL    HW172719   6.164   9.913   8.239
22624SOL    HW272720   6.198   9.881   8.396
22625SOL     OW72721   7.168   9.949   7.920
22625SOL    HW172722   7.137  10.010   7.993
22625SOL    HW272723   7.218  10.001   7.851
22626SOL     OW72724   6.599   9.415   9.218
22626SOL    HW172725   6.605   9.500   9.166
22626SOL    HW272726   6.631   9.339   9.161
22627SOL     OW72727   6.090   9.360   9.188
22627SOL    HW172728   6.048   9.303   9.118
22627SOL    HW272729   6.024   9.429   9.220
22628SOL     OW72730   6.795   9.835   7.723
22628SOL    HW172731   6.808   9.751   7.777
22628SOL    HW272732   6.766   9.909   7.783
22629SOL     OW72733   5.893   9.523   8.679
22629SOL    HW172734   5.870   9.560   8.769
22629SOL    HW272735   5.863   9.428   8.673
22630SOL     OW72736   6.318   9.944   8.512
22630SOL    HW172737   6.377   9.918   8.436
22630SOL    HW272738   6.290  10.040   8.501
22631SOL     OW72739   5.893   9.373   8.066
22631SOL    HW172740   5.882   9.467   8.099
22631SOL    HW272741   5.888   9.310   8.143
22632SOL     OW72742   7.208   9.677   7.822
22632SOL    HW172743   7.210   9.601   7.886
22632SOL    HW272744   7.160   9.754   7.862
22633SOL     OW72745   5.905  10.120   8.397
22633SOL    HW172746   5.998  10.156   8.402
22633SOL    HW272747   5.899  10.035   8.449
22634SOL     OW72748   5.925   9.819   8.454
22634SOL    HW172749   5.873   9.736   8.437
22634SOL    HW272750   6.002   9.824   8.390
22635SOL     OW72751   6.746   9.517   8.925
22635SOL    HW172752   6.746   9.581   9.002
22635SOL    HW272753   6.774   9.565   8.842
22636SOL     OW72754   5.626   9.854   8.562
22636SOL    HW172755   5.711   9.821   8.521
22636SOL    HW272756   5.639   9.869   8.660
22637SOL     OW72757   5.775   9.830   9.170
22637SOL    HW172758   5.834   9.790   9.100
22637SOL    HW272759   5.717   9.901   9.129
22638SOL     OW72760   6.401   9.882   7.773
22638SOL    HW172761   6.408   9.793   7.727
22638SOL    HW272762   6.307   9.916   7.765
22639SOL     OW72763   7.243   9.914   8.654
22639SOL    HW172764   7.205   9.845   8.716
22639SOL    HW272765   7.325   9.878   8.610
22640SOL     OW72766   6.257   9.774   8.717
22640SOL    HW172767   6.223   9.685   8.687
22640SOL    HW272768   6.283   9.828   8.637
22641SOL     OW72769   7.312   9.445   7.971
22641SOL    HW172770   7.385   9.428   7.904
22641SOL    HW272771   7.281   9.358   8.009
22642SOL     OW72772   7.427   9.485   8.411
22642SOL    HW172773   7.466   9.400   8.375
22642SOL    HW272774   7.329   9.487   8.392
22643SOL     OW72775   5.849   9.636   8.168
22643SOL    HW172776   5.770   9.687   8.134
22643SOL    HW272777   5.840   9.621   8.266
22644SOL     OW72778   6.600   9.546   8.419
22644SOL    HW172779   6.592   9.510   8.326
22644SOL    HW272780   6.598   9.470   8.484
22645SOL     OW72781   7.295   9.695   8.829
22645SOL    HW172782   7.368   9.764   8.833
22645SOL    HW272783   7.323   9.620   8.770
22646SOL     OW72784   6.258   9.513   8.937
22646SOL    HW172785   6.348   9.497   8.897
22646SOL    HW272786   6.266   9.518   9.036
22647SOL     OW72787   5.661   9.655   7.481
22647SOL    HW172788   5.569   9.627   7.452
22647SOL    HW272789   5.692   9.732   7.425
22648SOL     OW72790   5.658   9.476   7.766
22648SOL    HW172791   5.641   9.559   7.712
22648SOL    HW272792   5.748   9.439   7.744
22649SOL     OW72793   6.302   9.875   9.156
22649SOL    HW172794   6.321   9.940   9.230
22649SOL    HW272795   6.362   9.795   9.165
22650SOL     OW72796   6.811   9.635   7.897
22650SOL    HW172797   6.876   9.561   7.886
22650SOL    HW272798   6.831   9.685   7.981
22651SOL     OW72799   7.363   9.652   9.090
22651SOL    HW172800   7.346   9.683   8.996
22651SOL    HW272801   7.279   9.615   9.128
22652SOL     OW72802   6.669  10.294   7.535
22652SOL    HW172803   6.646  10.347   7.453
22652SOL    HW272804   6.750  10.238   7.516
22653SOL     OW72805   7.410   9.502   8.675
22653SOL    HW172806   7.406   9.412   8.719
22653SOL    HW272807   7.413   9.491   8.576
22654SOL     OW72808   6.014   9.734   7.968
22654SOL    HW172809   6.044   9.662   7.906
22654SOL    HW272810   5.975   9.694   8.051
22655SOL     OW72811   5.903   9.857   8.728
22655SOL    HW172812   5.941   9.798   8.800
22655SOL    HW272813   5.943   9.831   8.640
22656SOL     OW72814   7.010   9.524   8.560
22656SOL    HW172815   7.062   9.459   8.615
22656SOL    HW272816   6.961   9.587   8.621
22657SOL     OW72817   6.587   9.344   8.602
22657SOL    HW172818   6.524   9.272   8.571
22657SOL    HW272819   6.680   9.308   8.602
22658SOL     OW72820   6.886   9.763   8.139
22658SOL    HW172821   6.827   9.843   8.143
22658SOL    HW272822   6.901   9.728   8.232
22659SOL     OW72823   7.179   9.531   8.330
22659SOL    HW172824   7.095   9.530   8.384
22659SOL    HW272825   7.181   9.614   8.274
22660SOL     OW72826   7.341   9.917   9.541
22660SOL    HW172827   7.329   9.904   9.442
22660SOL    HW272828   7.311   9.836   9.590
22661SOL     OW72829   5.708   9.953   9.873
22661SOL    HW172830   5.663   9.865   9.890
22661SOL    HW272831   5.707  10.007   9.957
22662SOL     OW72832   6.395   9.314   9.812
22662SOL    HW172833   6.435   9.405   9.803
22662SOL    HW272834   6.295   9.322   9.818
22663SOL     OW72835   6.627  10.011   9.739
22663SOL    HW172836   6.653  10.007   9.835
22663SOL    HW272837   6.542   9.960   9.725
22664SOL     OW72838   6.451   9.658   9.505
22664SOL    HW172839   6.510   9.721   9.456
22664SOL    HW272840   6.470   9.564   9.476
22665SOL     OW72841   6.200   9.432   9.427
22665SOL    HW172842   6.298   9.410   9.434
22665SOL    HW272843   6.169   9.415   9.334
22666SOL     OW72844   6.125   9.374   9.822
22666SOL    HW172845   6.044   9.375   9.880
22666SOL    HW272846   6.128   9.457   9.767
22667SOL     OW72847   6.521   9.546   9.790
22667SOL    HW172848   6.473   9.587   9.712
22667SOL    HW272849   6.620   9.544   9.771
22668SOL     OW72850   6.452   9.764   9.952
22668SOL    HW172851   6.420   9.836   9.890
22668SOL    HW272852   6.476   9.683   9.899
22669SOL     OW72853   6.113   9.566   9.638
22669SOL    HW172854   6.140   9.507   9.563
22669SOL    HW272855   6.113   9.661   9.607
22670SOL     OW72856   7.168   9.949   9.782
22670SOL    HW172857   7.137  10.010   9.855
22670SOL    HW272858   7.218  10.001   9.713
22671SOL     OW72859   6.795   9.835   9.585
22671SOL    HW172860   6.808   9.751   9.639
22671SOL    HW272861   6.766   9.909   9.645
22672SOL     OW72862   5.893   9.373   9.928
22672SOL    HW172863   5.882   9.467   9.961
22672SOL    HW272864   5.888   9.310  10.005
22673SOL     OW72865   7.208   9.677   9.684
22673SOL    HW172866   7.210   9.601   9.748
22673SOL    HW272867   7.160   9.754   9.724
22674SOL     OW72868   7.126   9.584   9.435
22674SOL    HW172869   7.065   9.509   9.458
22674SOL    HW272870   7.148   9.636   9.518
22675SOL     OW72871   5.925   9.819  10.316
22675SOL    HW172872   5.873   9.736  10.299
22675SOL    HW272873   6.002   9.824  10.252
22676SOL     OW72874   6.401   9.882   9.635
22676SOL    HW172875   6.408   9.793   9.589
22676SOL    HW272876   6.307   9.916   9.627
22677SOL     OW72877   7.312   9.445   9.833
22677SOL    HW172878   7.385   9.428   9.766
22677SOL    HW272879   7.281   9.358   9.871
22678SOL     OW72880   5.661   9.655   9.343
22678SOL    HW172881   5.569   9.627   9.314
22678SOL    HW272882   5.692   9.732   9.287
22679SOL     OW72883   5.658   9.476   9.628
22679SOL    HW172884   5.641   9.559   9.574
22679SOL    HW272885   5.748   9.439   9.606
22680SOL     OW72886   6.669  10.294   9.397
22680SOL    HW172887   6.646  10.347   9.315
22680SOL    HW272888   6.750  10.238   9.378
22681SOL     OW72889   6.014   9.734   9.830
22681SOL    HW172890   6.044   9.662   9.768
22681SOL    HW272891   5.975   9.694   9.913
22682SOL     OW72892   6.938   9.362   9.478
22682SOL    HW172893   6.973   9.321   9.394
22682SOL    HW272894   6.848   9.324   9.498
22683SOL     OW72895   7.678   0.628   0.113
22683SOL    HW172896   7.585   0.626   0.150
22683SOL    HW272897   7.679   0.589   0.021
22684SOL     OW72898   7.673   0.275   0.996
22684SOL    HW172899   7.708   0.258   1.088
22684SOL    HW272900   7.585   0.230   0.984
22685SOL     OW72901   7.467   0.368   0.647
22685SOL    HW172902   7.385   0.411   0.686
22685SOL    HW272903   7.439   0.295   0.584
22686SOL     OW72904   8.017   1.275   1.165
22686SOL    HW172905   7.924   1.268   1.128
22686SOL    HW272906   8.028   1.364   1.209
22687SOL     OW72907   9.003   1.511   0.703
22687SOL    HW172908   8.946   1.495   0.784
22687SOL    HW272909   8.944   1.521   0.623
22688SOL     OW72910   8.583   0.703   0.717
22688SOL    HW172911   8.640   0.781   0.692
22688SOL    HW272912   8.523   0.729   0.793
22689SOL     OW72913   9.203   0.607   0.231
22689SOL    HW172914   9.191   0.594   0.132
22689SOL    HW272915   9.173   0.526   0.280
22690SOL     OW72916   8.216   1.144   1.023
22690SOL    HW172917   8.138   1.161   1.083
22690SOL    HW272918   8.250   1.231   0.987
22691SOL     OW72919   8.298   0.798   1.823
22691SOL    HW172920   8.294   0.874   1.888
22691SOL    HW272921   8.320   0.834   1.732
22692SOL     OW72922   8.133   1.012   0.665
22692SOL    HW172923   8.202   0.996   0.735
22692SOL    HW272924   8.060   1.069   0.703
22693SOL     OW72925   8.134   1.161   1.803
22693SOL    HW172926   8.194   1.240   1.817
22693SOL    HW272927   8.048   1.192   1.762
22694SOL     OW72928   7.783   1.435   1.061
22694SOL    HW172929   7.705   1.404   1.008
22694SOL    HW272930   7.841   1.493   1.004
22695SOL     OW72931   8.908   1.505   1.339
22695SOL    HW172932   8.932   1.599   1.365
22695SOL    HW272933   8.892   1.451   1.421
22696SOL     OW72934   7.886   0.392   1.499
22696SOL    HW172935   7.968   0.336   1.508
22696SOL    HW272936   7.805   0.334   1.503
22697SOL     OW72937   9.051   0.447   0.737
22697SOL    HW172938   8.977   0.493   0.687
22697SOL    HW272939   9.102   0.515   0.790
22698SOL     OW72940   7.679   1.713   0.483
22698SOL    HW172941   7.713   1.790   0.537
22698SOL    HW272942   7.723   1.713   0.393
22699SOL     OW72943   8.575   1.341   1.690
22699SOL    HW172944   8.622   1.341   1.778
22699SOL    HW272945   8.527   1.254   1.679
22700SOL     OW72946   7.678   1.434   0.538
22700SOL    HW172947   7.652   1.530   0.538
22700SOL    HW272948   7.607   1.380   0.583
22701SOL     OW72949   7.688   1.091   0.886
22701SOL    HW172950   7.702   1.007   0.938
22701SOL    HW272951   7.633   1.155   0.941
22702SOL     OW72952   8.068   1.786   1.439
22702SOL    HW172953   7.976   1.769   1.474
22702SOL    HW272954   8.096   1.878   1.465
22703SOL     OW72955   8.054   0.964   0.123
22703SOL    HW172956   8.061   1.048   0.069
22703SOL    HW272957   8.100   0.977   0.211
22704SOL     OW72958   9.042   0.114   1.480
22704SOL    HW172959   9.024   0.181   1.408
22704SOL    HW272960   9.039   0.160   1.569
22705SOL     OW72961   7.570   0.643   0.563
22705SOL    HW172962   7.525   0.555   0.580
22705SOL    HW272963   7.569   0.697   0.647
22706SOL     OW72964   7.475   1.596   0.117
22706SOL    HW172965   7.456   1.500   0.138
22706SOL    HW272966   7.442   1.654   0.192
22707SOL     OW72967   9.137   0.922   0.612
22707SOL    HW172968   9.232   0.893   0.620
22707SOL    HW272969   9.129   0.987   0.537
22708SOL     OW72970   7.561   0.737   1.597
22708SOL    HW172971   7.649   0.724   1.642
22708SOL    HW272972   7.548   0.834   1.575
22709SOL     OW72973   8.061   1.365   0.726
22709SOL    HW172974   8.012   1.278   0.735
22709SOL    HW272975   8.038   1.408   0.639
22710SOL     OW72976   8.741   1.228   1.423
22710SOL    HW172977   8.778   1.155   1.365
22710SOL    HW272978   8.793   1.233   1.508
22711SOL     OW72979   7.645   0.976   1.264
22711SOL    HW172980   7.734   0.931   1.250
22711SOL    HW272981   7.572   0.911   1.245
22712SOL     OW72982   8.635   1.792   1.616
22712SOL    HW172983   8.659   1.852   1.540
22712SOL    HW272984   8.642   1.697   1.586
22713SOL     OW72985   7.765   0.251   1.801
22713SOL    HW172986   7.836   0.322   1.807
22713SOL    HW272987   7.677   0.290   1.829
22714SOL     OW72988   8.914   1.417   0.953
22714SOL    HW172989   8.855   1.423   1.033
22714SOL    HW272990   8.899   1.329   0.907
22715SOL     OW72991   9.115   1.714   0.572
22715SOL    HW172992   9.074   1.691   0.484
22715SOL    HW272993   9.097   1.640   0.637
22716SOL     OW72994   8.046   0.729   0.270
22716SOL    HW172995   8.070   0.798   0.202
22716SOL    HW272996   7.968   0.762   0.324
22717SOL     OW72997   8.729   0.345   0.944
22717SOL    HW172998   8.643   0.295   0.931
22717SOL    HW272999   8.791   0.291   1.000
22718SOL     OW73000   9.024   1.662   0.307
22718SOL    HW173001   9.113   1.708   0.310
22718SOL    HW273002   9.003   1.638   0.212
22719SOL     OW73003   8.842   0.469   1.674
22719SOL    HW173004   8.822   0.512   1.762
22719SOL    HW273005   8.920   0.407   1.683
22720SOL     OW73006   7.524   0.811   0.789
22720SOL    HW173007   7.623   0.799   0.798
22720SOL    HW273008   7.500   0.906   0.810
22721SOL     OW73009   7.578   1.821   1.571
22721SOL    HW173010   7.568   1.806   1.670
22721SOL    HW273011   7.492   1.857   1.535
22722SOL     OW73012   8.313   0.348   0.195
22722SOL    HW173013   8.372   0.411   0.146
22722SOL    HW273014   8.332   0.254   0.166
22723SOL     OW73015   9.167   0.585   1.831
22723SOL    HW173016   9.141   0.674   1.795
22723SOL    HW273017   9.165   0.517   1.758
22724SOL     OW73018   7.998   0.196   0.885
22724SOL    HW173019   7.993   0.191   0.985
22724SOL    HW273020   8.000   0.292   0.856
22725SOL     OW73021   7.799   1.801   0.853
22725SOL    HW173022   7.849   1.715   0.859
22725SOL    HW273023   7.864   1.878   0.850
22726SOL     OW73024   9.243   1.066   0.873
22726SOL    HW173025   9.181   1.051   0.797
22726SOL    HW273026   9.191   1.077   0.958
22727SOL     OW73027   8.675   1.550   1.506
22727SOL    HW173028   8.681   1.473   1.570
22727SOL    HW273029   8.623   1.524   1.426
22728SOL     OW73030   8.906   0.735   0.728
22728SOL    HW173031   8.901   0.670   0.803
22728SOL    HW273032   8.986   0.794   0.741
22729SOL     OW73033   7.909   1.266   1.727
22729SOL    HW173034   7.859   1.267   1.641
22729SOL    HW273035   7.846   1.248   1.803
22730SOL     OW73036   8.559   1.776   0.237
22730SOL    HW173037   8.499   1.714   0.287
22730SOL    HW273038   8.590   1.732   0.152
22731SOL     OW73039   7.650   0.285   1.498
22731SOL    HW173040   7.570   0.345   1.485
22731SOL    HW273041   7.640   0.236   1.584
22732SOL     OW73042   9.080   1.377   0.081
22732SOL    HW173043   9.048   1.471   0.071
22732SOL    HW273044   9.004   1.314   0.069
22733SOL     OW73045   7.912   1.743   0.323
22733SOL    HW173046   7.945   1.782   0.409
22733SOL    HW273047   7.988   1.736   0.258
22734SOL     OW73048   8.848   0.107   0.426
22734SOL    HW173049   8.824   0.070   0.336
22734SOL    HW273050   8.947   0.123   0.430
22735SOL     OW73051   7.697   1.785   1.241
22735SOL    HW173052   7.754   1.720   1.291
22735SOL    HW273053   7.681   1.752   1.148
22736SOL     OW73054   7.830   0.700   0.480
22736SOL    HW173055   7.875   0.610   0.477
22736SOL    HW273056   7.736   0.689   0.513
22737SOL     OW73057   8.995   0.222   1.729
22737SOL    HW173058   8.990   0.259   1.821
22737SOL    HW273059   8.923   0.153   1.717
22738SOL     OW73060   8.229   0.264   1.749
22738SOL    HW173061   8.296   0.203   1.792
22738SOL    HW273062   8.156   0.283   1.814
22739SOL     OW73063   8.336   1.514   1.195
22739SOL    HW173064   8.313   1.489   1.101
22739SOL    HW273065   8.397   1.445   1.234
22740SOL     OW73066   8.799   0.590   1.433
22740SOL    HW173067   8.827   0.547   1.518
22740SOL    HW273068   8.824   0.686   1.434
22741SOL     OW73069   8.251   1.402   0.924
22741SOL    HW173070   8.341   1.416   0.882
22741SOL    HW273071   8.180   1.404   0.853
22742SOL     OW73072   7.987   0.064   0.512
22742SOL    HW173073   7.906   0.065   0.570
22742SOL    HW273074   7.990   0.147   0.457
22743SOL     OW73075   7.745   0.035   0.171
22743SOL    HW173076   7.794   0.119   0.150
22743SOL    HW273077   7.807  -0.030   0.216
22744SOL     OW73078   7.907   1.152   0.741
22744SOL    HW173079   7.836   1.125   0.806
22744SOL    HW273080   7.881   1.124   0.648
22745SOL     OW73081   8.719   1.797   0.591
22745SOL    HW173082   8.763   1.861   0.527
22745SOL    HW273083   8.669   1.849   0.661
22746SOL     OW73084   8.480   0.549   0.016
22746SOL    HW173085   8.439   0.631  -0.023
22746SOL    HW273086   8.544   0.575   0.089
22747SOL     OW73087   7.526   0.556   1.386
22747SOL    HW173088   7.618   0.555   1.345
22747SOL    HW273089   7.520   0.630   1.453
22748SOL     OW73090   8.009   0.222   1.147
22748SOL    HW173091   8.047   0.138   1.184
22748SOL    HW273092   7.921   0.241   1.191
22749SOL     OW73093   8.465   0.039   0.753
22749SOL    HW173094   8.393   0.044   0.684
22749SOL    HW273095   8.441  -0.030   0.822
22750SOL     OW73096   8.877   1.173   0.867
22750SOL    HW173097   8.822   1.089   0.860
22750SOL    HW273098   8.903   1.202   0.775
22751SOL     OW73099   8.914   0.590   0.992
22751SOL    HW173100   8.884   0.495   0.999
22751SOL    HW273101   8.987   0.606   1.058
22752SOL     OW73102   9.305   0.833   0.377
22752SOL    HW173103   9.347   0.769   0.441
22752SOL    HW273104   9.267   0.782   0.299
22753SOL     OW73105   9.112   1.280   0.657
22753SOL    HW173106   9.211   1.288   0.671
22753SOL    HW273107   9.067   1.364   0.688
22754SOL     OW73108   8.838   0.575   0.078
22754SOL    HW173109   8.784   0.554   0.159
22754SOL    HW273110   8.929   0.534   0.087
22755SOL     OW73111   7.975   0.256   0.328
22755SOL    HW173112   8.002   0.197   0.253
22755SOL    HW273113   7.975   0.351   0.297
22756SOL     OW73114   9.202   1.223   1.588
22756SOL    HW173115   9.293   1.184   1.575
22756SOL    HW273116   9.210   1.319   1.612
22757SOL     OW73117   8.512   1.347   1.340
22757SOL    HW173118   8.432   1.324   1.395
22757SOL    HW273119   8.595   1.321   1.389
22758SOL     OW73120   9.040   1.629   1.625
22758SOL    HW173121   9.067   1.663   1.535
22758SOL    HW273122   9.119   1.591   1.671
22759SOL     OW73123   8.559   1.195   1.100
22759SOL    HW173124   8.519   1.239   1.181
22759SOL    HW273125   8.518   1.232   1.017
22760SOL     OW73126   9.086   1.099   1.079
22760SOL    HW173127   9.091   1.180   1.138
22760SOL    HW273128   9.000   1.101   1.028
22761SOL     OW73129   8.363   0.089   1.402
22761SOL    HW173130   8.388   0.069   1.307
22761SOL    HW273131   8.435   0.145   1.444
22762SOL     OW73132   8.428   1.116   1.719
22762SOL    HW173133   8.329   1.122   1.729
22762SOL    HW273134   8.451   1.036   1.663
22763SOL     OW73135   8.153   1.050   0.368
22763SOL    HW173136   8.139   1.057   0.467
22763SOL    HW273137   8.237   0.999   0.350
22764SOL     OW73138   7.858   0.813   1.251
22764SOL    HW173139   7.944   0.825   1.301
22764SOL    HW273140   7.816   0.726   1.278
22765SOL     OW73141   8.722   0.386   1.262
22765SOL    HW173142   8.743   0.460   1.326
22765SOL    HW273143   8.633   0.403   1.219
22766SOL     OW73144   7.512   1.564   1.331
22766SOL    HW173145   7.466   1.646   1.297
22766SOL    HW273146   7.610   1.583   1.340
22767SOL     OW73147   7.815   1.100   0.501
22767SOL    HW173148   7.808   1.183   0.445
22767SOL    HW273149   7.819   1.020   0.441
22768SOL     OW73150   8.014   0.537   0.865
22768SOL    HW173151   8.026   0.603   0.791
22768SOL    HW273152   8.060   0.571   0.948
22769SOL     OW73153   8.720   1.445   1.142
22769SOL    HW173154   8.767   1.458   1.229
22769SOL    HW273155   8.654   1.371   1.151
22770SOL     OW73156   9.030   0.639   0.472
22770SOL    HW173157   8.999   0.700   0.545
22770SOL    HW273158   9.080   0.691   0.403
22771SOL     OW73159   7.802   1.510   1.329
22771SOL    HW173160   7.781   1.466   1.242
22771SOL    HW273161   7.899   1.536   1.332
22772SOL     OW73162   7.850   0.751   1.598
22772SOL    HW173163   7.918   0.806   1.551
22772SOL    HW273164   7.890   0.663   1.625
22773SOL     OW73165   9.035   0.779   1.670
22773SOL    HW173166   8.943   0.817   1.665
22773SOL    HW273167   9.095   0.826   1.605
22774SOL     OW73168   8.461   0.105   1.770
22774SOL    HW173169   8.467   0.190   1.718
22774SOL    HW273170   8.493   0.029   1.713
22775SOL     OW73171   7.952   0.050   1.740
22775SOL    HW173172   7.910  -0.007   1.670
22775SOL    HW273173   7.886   0.119   1.772
22776SOL     OW73174   8.021   0.870   1.029
22776SOL    HW173175   8.065   0.959   1.020
22776SOL    HW273176   7.958   0.870   1.106
22777SOL     OW73177   8.808   0.862   1.045
22777SOL    HW173178   8.733   0.862   0.979
22777SOL    HW273179   8.845   0.770   1.054
22778SOL     OW73180   7.755   0.213   1.231
22778SOL    HW173181   7.732   0.250   1.321
22778SOL    HW273182   7.725   0.118   1.225
22779SOL     OW73183   7.485   1.310   1.282
22779SOL    HW173184   7.538   1.261   1.350
22779SOL    HW273185   7.507   1.408   1.287
22780SOL     OW73186   8.180   0.634   1.064
22780SOL    HW173187   8.239   0.608   0.988
22780SOL    HW273188   8.152   0.730   1.053
22781SOL     OW73189   7.755   0.063   0.618
22781SOL    HW173190   7.744   0.157   0.651
22781SOL    HW273191   7.750   0.000   0.695
22782SOL     OW73192   9.070   0.367   0.374
22782SOL    HW173193   9.072   0.291   0.438
22782SOL    HW273194   9.022   0.444   0.414
22783SOL     OW73195   8.471   0.766   0.966
22783SOL    HW173196   8.486   0.787   1.062
22783SOL    HW273197   8.441   0.671   0.957
22784SOL     OW73198   8.428   1.573   1.700
22784SOL    HW173199   8.408   1.617   1.612
22784SOL    HW273200   8.467   1.482   1.684
22785SOL     OW73201   9.307   1.518   1.605
22785SOL    HW173202   9.321   1.545   1.510
22785SOL    HW273203   9.390   1.540   1.658
22786SOL     OW73204   7.798   0.898   1.804
22786SOL    HW173205   7.874   0.942   1.852
22786SOL    HW273206   7.833   0.851   1.722
22787SOL     OW73207   8.988   0.274   0.125
22787SOL    HW173208   8.927   0.199   0.148
22787SOL    HW273209   9.010   0.326   0.208
22788SOL     OW73210   8.516   1.333   0.849
22788SOL    HW173211   8.523   1.249   0.794
22788SOL    HW273212   8.578   1.402   0.813
22789SOL     OW73213   7.767   0.810   0.949
22789SOL    HW173214   7.860   0.846   0.954
22789SOL    HW273215   7.761   0.725   1.001
22790SOL     OW73216   7.787   0.509   1.006
22790SOL    HW173217   7.735   0.426   0.989
22790SOL    HW273218   7.864   0.514   0.942
22791SOL     OW73219   8.586   0.380   1.678
22791SOL    HW173220   8.541   0.443   1.742
22791SOL    HW273221   8.679   0.411   1.661
22792SOL     OW73222   8.608   0.207   1.477
22792SOL    HW173223   8.608   0.271   1.554
22792SOL    HW273224   8.636   0.255   1.394
22793SOL     OW73225   7.536   1.801   0.927
22793SOL    HW173226   7.494   1.715   0.900
22793SOL    HW273227   7.630   1.804   0.893
22794SOL     OW73228   7.952   1.568   0.910
22794SOL    HW173229   8.018   1.642   0.919
22794SOL    HW273230   7.996   1.489   0.868
22795SOL     OW73231   7.488   0.544   1.114
22795SOL    HW173232   7.573   0.511   1.073
22795SOL    HW273233   7.501   0.559   1.212
22796SOL     OW73234   8.817   0.950   1.660
22796SOL    HW173235   8.856   1.039   1.680
22796SOL    HW273236   8.827   0.930   1.563
22797SOL     OW73237   8.263   0.572   0.325
22797SOL    HW173238   8.270   0.483   0.279
22797SOL    HW273239   8.169   0.606   0.317
22798SOL     OW73240   9.105   0.604   1.206
22798SOL    HW173241   9.067   0.535   1.268
22798SOL    HW273242   9.187   0.568   1.162
22799SOL     OW73243   7.700   1.564   1.744
22799SOL    HW173244   7.670   1.621   1.820
22799SOL    HW273245   7.693   1.467   1.770
22800SOL     OW73246   8.378   1.678   1.465
22800SOL    HW173247   8.354   1.660   1.370
22800SOL    HW273248   8.408   1.772   1.475
22801SOL     OW73249   7.921   0.500   0.191
22801SOL    HW173250   7.982   0.580   0.195
22801SOL    HW273251   7.826   0.531   0.198
22802SOL     OW73252   7.607   1.137   1.466
22802SOL    HW173253   7.629   1.076   1.542
22802SOL    HW273254   7.617   1.088   1.380
22803SOL     OW73255   8.795   1.059   1.234
22803SOL    HW173256   8.819   0.996   1.160
22803SOL    HW273257   8.705   1.099   1.216
22804SOL     OW73258   9.207   1.747   1.154
22804SOL    HW173259   9.268   1.777   1.081
22804SOL    HW273260   9.169   1.658   1.132
22805SOL     OW73261   8.700   1.731   1.128
22805SOL    HW173262   8.784   1.736   1.074
22805SOL    HW273263   8.677   1.635   1.146
22806SOL     OW73264   7.531   1.258   1.022
22806SOL    HW173265   7.526   1.257   1.122
22806SOL    HW273266   7.448   1.217   0.984
22807SOL     OW73267   8.136   1.662   1.716
22807SOL    HW173268   8.080   1.743   1.725
22807SOL    HW273269   8.188   1.666   1.630
22808SOL     OW73270   9.174   0.135   0.523
22808SOL    HW173271   9.247   0.118   0.456
22808SOL    HW273272   9.143   0.048   0.561
22809SOL     OW73273   8.836   1.573   0.477
22809SOL    HW173274   8.903   1.585   0.403
22809SOL    HW273275   8.796   1.662   0.500
22810SOL     OW73276   7.578   1.794   1.851
22810SOL    HW173277   7.537   1.720   1.904
22810SOL    HW273278   7.642   1.845   1.909
22811SOL     OW73279   8.728   0.927   0.672
22811SOL    HW173280   8.788   0.846   0.674
22811SOL    HW273281   8.768   0.996   0.612
22812SOL     OW73282   8.278   1.273   1.422
22812SOL    HW173283   8.273   1.306   1.517
22812SOL    HW273284   8.192   1.292   1.376
22813SOL     OW73285   8.120   1.616   0.154
22813SOL    HW173286   8.129   1.626   0.055
22813SOL    HW273287   8.080   1.527   0.175
22814SOL     OW73288   9.098   1.720   1.394
22814SOL    HW173289   9.151   1.730   1.310
22814SOL    HW273290   9.071   1.810   1.428
22815SOL     OW73291   9.289   0.175   0.963
22815SOL    HW173292   9.328   0.090   0.927
22815SOL    HW273293   9.191   0.177   0.944
22816SOL     OW73294   7.711   0.326   0.720
22816SOL    HW173295   7.632   0.377   0.686
22816SOL    HW273296   7.702   0.311   0.818
22817SOL     OW73297   8.642   1.612   0.031
22817SOL    HW173298   8.648   1.519   0.068
22817SOL    HW273299   8.583   1.612  -0.049
22818SOL     OW73300   8.270   1.002   1.372
22818SOL    HW173301   8.310   1.001   1.280
22818SOL    HW273302   8.280   1.094   1.412
22819SOL     OW73303   8.364   0.910   0.291
22819SOL    HW173304   8.427   0.948   0.223
22819SOL    HW273305   8.404   0.827   0.330
22820SOL     OW73306   8.952   1.607   0.044
22820SOL    HW173307   8.860   1.644   0.051
22820SOL    HW273308   8.990   1.627  -0.046
22821SOL     OW73309   7.820   1.288   1.490
22821SOL    HW173310   7.807   1.381   1.456
22821SOL    HW273311   7.736   1.236   1.477
22822SOL     OW73312   9.062   1.292   1.289
22822SOL    HW173313   9.122   1.295   1.369
22822SOL    HW273314   8.987   1.356   1.302
22823SOL     OW73315   8.487   1.098   0.696
22823SOL    HW173316   8.417   1.051   0.750
22823SOL    HW273317   8.546   1.030   0.653
22824SOL     OW73318   8.462   0.236   0.971
22824SOL    HW173319   8.454   0.200   0.878
22824SOL    HW273320   8.460   0.160   1.036
22825SOL     OW73321   8.038   1.487   0.491
22825SOL    HW173322   8.080   1.429   0.421
22825SOL    HW273323   7.994   1.566   0.447
22826SOL     OW73324   9.157   0.385   1.381
22826SOL    HW173325   9.230   0.454   1.385
22826SOL    HW273326   9.185   0.310   1.322
22827SOL     OW73327   7.703   1.348   0.290
22827SOL    HW173328   7.607   1.349   0.263
22827SOL    HW273329   7.715   1.401   0.374
22828SOL     OW73330   7.553   1.013   1.726
22828SOL    HW173331   7.476   0.980   1.780
22828SOL    HW273332   7.638   0.983   1.768
22829SOL     OW73333   8.120   0.203   1.489
22829SOL    HW173334   8.210   0.187   1.449
22829SOL    HW273335   8.128   0.208   1.588
22830SOL     OW73336   7.523   0.345   0.033
22830SOL    HW173337   7.431   0.317   0.004
22830SOL    HW273338   7.554   0.422  -0.023
22831SOL     OW73339   8.888   0.856   1.398
22831SOL    HW173340   8.831   0.908   1.335
22831SOL    HW273341   8.984   0.868   1.374
22832SOL     OW73342   8.631   1.335   0.119
22832SOL    HW173343   8.532   1.324   0.121
22832SOL    HW273344   8.665   1.350   0.212
22833SOL     OW73345   8.061   0.842   1.431
22833SOL    HW173346   8.117   0.923   1.414
22833SOL    HW273347   8.120   0.762   1.434
22834SOL     OW73348   8.941   1.767   0.959
22834SOL    HW173349   8.974   1.831   0.890
22834SOL    HW273350   9.007   1.761   1.034
22835SOL     OW73351   8.164   0.565   1.708
22835SOL    HW173352   8.183   0.630   1.782
22835SOL    HW273353   8.224   0.485   1.717
22836SOL     OW73354   8.898   1.220   1.633
22836SOL    HW173355   8.889   1.210   1.732
22836SOL    HW273356   8.994   1.213   1.607
22837SOL     OW73357   7.838   1.741   1.560
22837SOL    HW173358   7.747   1.782   1.558
22837SOL    HW273359   7.831   1.647   1.592
22838SOL     OW73360   9.122   0.883   1.254
22838SOL    HW173361   9.095   0.794   1.217
22838SOL    HW273362   9.123   0.951   1.181
22839SOL     OW73363   8.042   0.745   0.652
22839SOL    HW173364   8.092   0.830   0.633
22839SOL    HW273365   7.954   0.747   0.604
22840SOL     OW73366   9.225   0.342   1.642
22840SOL    HW173367   9.208   0.373   1.548
22840SOL    HW273368   9.141   0.305   1.680
22841SOL     OW73369   9.178   0.934   1.517
22841SOL    HW173370   9.216   1.025   1.532
22841SOL    HW273371   9.170   0.917   1.418
22842SOL     OW73372   8.307   1.374   0.016
22842SOL    HW173373   8.261   1.389   0.104
22842SOL    HW273374   8.351   1.459  -0.014
22843SOL     OW73375   8.109   1.790   0.953
22843SOL    HW173376   8.063   1.878   0.940
22843SOL    HW273377   8.208   1.802   0.946
22844SOL     OW73378   8.307   0.956   0.861
22844SOL    HW173379   8.361   0.887   0.909
22844SOL    HW273380   8.275   1.025   0.927
22845SOL     OW73381   8.531   0.984   0.087
22845SOL    HW173382   8.508   1.037   0.005
22845SOL    HW273383   8.612   0.928   0.068
22846SOL     OW73384   9.309   1.569   0.851
22846SOL    HW173385   9.238   1.557   0.781
22846SOL    HW273386   9.310   1.490   0.911
22847SOL     OW73387   7.669   1.314   1.844
22847SOL    HW173388   7.604   1.241   1.823
22847SOL    HW273389   7.673   1.328   1.942
22848SOL     OW73390   7.527   1.240   0.653
22848SOL    HW173391   7.526   1.193   0.741
22848SOL    HW273392   7.609   1.212   0.602
22849SOL     OW73393   8.120   1.391   1.624
22849SOL    HW173394   8.042   1.341   1.662
22849SOL    HW273395   8.117   1.486   1.655
22850SOL     OW73396   9.272   0.192   1.227
22850SOL    HW173397   9.268   0.102   1.271
22850SOL    HW273398   9.275   0.181   1.128
22851SOL     OW73399   7.876   0.424   0.520
22851SOL    HW173400   7.906   0.352   0.458
22851SOL    HW273401   7.837   0.384   0.603
22852SOL     OW73402   9.153   1.487   1.104
22852SOL    HW173403   9.060   1.462   1.077
22852SOL    HW273404   9.179   1.437   1.186
22853SOL     OW73405   7.765   0.547   1.280
22853SOL    HW173406   7.803   0.488   1.352
22853SOL    HW273407   7.805   0.521   1.192
22854SOL     OW73408   8.872   0.214   1.112
22854SOL    HW173409   8.924   0.149   1.167
22854SOL    HW273410   8.823   0.277   1.173
22855SOL     OW73411   8.449   0.034   1.154
22855SOL    HW173412   8.386  -0.038   1.123
22855SOL    HW273413   8.542  -0.002   1.154
22856SOL     OW73414   8.218   1.330   0.301
22856SOL    HW173415   8.172   1.243   0.318
22856SOL    HW273416   8.309   1.327   0.342
22857SOL     OW73417   8.066   1.567   1.284
22857SOL    HW173418   8.061   1.649   1.341
22857SOL    HW273419   8.155   1.564   1.239
22858SOL     OW73420   8.800   0.052   0.168
22858SOL    HW173421   8.835   0.011   0.084
22858SOL    HW273422   8.710   0.014   0.188
22859SOL     OW73423   9.041   0.221   0.882
22859SOL    HW173424   8.957   0.220   0.936
22859SOL    HW273425   9.043   0.304   0.826
22860SOL     OW73426   8.323   1.646   0.337
22860SOL    HW173427   8.246   1.611   0.283
22860SOL    HW273428   8.291   1.717   0.399
22861SOL     OW73429   7.673   0.275   2.858
22861SOL    HW173430   7.708   0.258   2.950
22861SOL    HW273431   7.585   0.230   2.846
22862SOL     OW73432   7.467   0.368   2.509
22862SOL    HW173433   7.385   0.411   2.548
22862SOL    HW273434   7.439   0.295   2.446
22863SOL     OW73435   8.017   1.275   3.027
22863SOL    HW173436   7.924   1.268   2.990
22863SOL    HW273437   8.028   1.364   3.071
22864SOL     OW73438   9.003   1.511   2.565
22864SOL    HW173439   8.946   1.495   2.646
22864SOL    HW273440   8.944   1.521   2.485
22865SOL     OW73441   8.583   0.703   2.579
22865SOL    HW173442   8.640   0.781   2.554
22865SOL    HW273443   8.523   0.729   2.655
22866SOL     OW73444   8.216   1.144   2.885
22866SOL    HW173445   8.138   1.161   2.945
22866SOL    HW273446   8.250   1.231   2.849
22867SOL     OW73447   8.298   0.798   3.685
22867SOL    HW173448   8.294   0.874   3.750
22867SOL    HW273449   8.320   0.834   3.594
22868SOL     OW73450   8.133   1.012   2.527
22868SOL    HW173451   8.202   0.996   2.597
22868SOL    HW273452   8.060   1.069   2.565
22869SOL     OW73453   8.134   1.161   3.665
22869SOL    HW173454   8.194   1.240   3.679
22869SOL    HW273455   8.048   1.192   3.624
22870SOL     OW73456   7.783   1.435   2.923
22870SOL    HW173457   7.705   1.404   2.870
22870SOL    HW273458   7.841   1.493   2.866
22871SOL     OW73459   8.908   1.505   3.201
22871SOL    HW173460   8.932   1.599   3.227
22871SOL    HW273461   8.892   1.451   3.283
22872SOL     OW73462   7.886   0.392   3.361
22872SOL    HW173463   7.968   0.336   3.370
22872SOL    HW273464   7.805   0.334   3.365
22873SOL     OW73465   9.051   0.447   2.599
22873SOL    HW173466   8.977   0.493   2.549
22873SOL    HW273467   9.102   0.515   2.652
22874SOL     OW73468   7.679   1.713   2.345
22874SOL    HW173469   7.713   1.790   2.399
22874SOL    HW273470   7.723   1.713   2.255
22875SOL     OW73471   8.575   1.341   3.552
22875SOL    HW173472   8.622   1.341   3.640
22875SOL    HW273473   8.527   1.254   3.541
22876SOL     OW73474   7.678   1.434   2.400
22876SOL    HW173475   7.652   1.530   2.400
22876SOL    HW273476   7.607   1.380   2.445
22877SOL     OW73477   7.688   1.091   2.748
22877SOL    HW173478   7.702   1.007   2.800
22877SOL    HW273479   7.633   1.155   2.803
22878SOL     OW73480   8.068   1.786   3.301
22878SOL    HW173481   7.976   1.769   3.336
22878SOL    HW273482   8.096   1.878   3.327
22879SOL     OW73483   8.054   0.964   1.985
22879SOL    HW173484   8.061   1.048   1.931
22879SOL    HW273485   8.100   0.977   2.073
22880SOL     OW73486   9.042   0.114   3.342
22880SOL    HW173487   9.024   0.181   3.270
22880SOL    HW273488   9.039   0.160   3.431
22881SOL     OW73489   7.570   0.643   2.425
22881SOL    HW173490   7.525   0.555   2.442
22881SOL    HW273491   7.569   0.697   2.509
22882SOL     OW73492   9.290   1.767   2.221
22882SOL    HW173493   9.344   1.738   2.301
22882SOL    HW273494   9.320   1.857   2.192
22883SOL     OW73495   7.475   1.596   1.979
22883SOL    HW173496   7.456   1.500   2.000
22883SOL    HW273497   7.442   1.654   2.054
22884SOL     OW73498   9.137   0.922   2.474
22884SOL    HW173499   9.232   0.893   2.482
22884SOL    HW273500   9.129   0.987   2.399
22885SOL     OW73501   9.089   1.108   2.294
22885SOL    HW173502   9.175   1.110   2.242
22885SOL    HW273503   9.103   1.155   2.382
22886SOL     OW73504   7.561   0.737   3.459
22886SOL    HW173505   7.649   0.724   3.504
22886SOL    HW273506   7.548   0.834   3.437
22887SOL     OW73507   8.061   1.365   2.588
22887SOL    HW173508   8.012   1.278   2.597
22887SOL    HW273509   8.038   1.408   2.501
22888SOL     OW73510   8.741   1.228   3.285
22888SOL    HW173511   8.778   1.155   3.227
22888SOL    HW273512   8.793   1.233   3.370
22889SOL     OW73513   8.257   0.004   2.364
22889SOL    HW173514   8.297   0.095   2.355
22889SOL    HW273515   8.157   0.012   2.370
22890SOL     OW73516   7.645   0.976   3.126
22890SOL    HW173517   7.734   0.931   3.112
22890SOL    HW273518   7.572   0.911   3.107
22891SOL     OW73519   8.973   0.999   2.052
22891SOL    HW173520   8.910   0.923   2.065
22891SOL    HW273521   9.021   1.017   2.138
22892SOL     OW73522   8.635   1.792   3.478
22892SOL    HW173523   8.659   1.852   3.402
22892SOL    HW273524   8.642   1.697   3.448
22893SOL     OW73525   7.765   0.251   3.663
22893SOL    HW173526   7.836   0.322   3.669
22893SOL    HW273527   7.677   0.290   3.691
22894SOL     OW73528   8.914   1.417   2.815
22894SOL    HW173529   8.855   1.423   2.895
22894SOL    HW273530   8.899   1.329   2.769
22895SOL     OW73531   9.115   1.714   2.434
22895SOL    HW173532   9.074   1.691   2.346
22895SOL    HW273533   9.097   1.640   2.499
22896SOL     OW73534   8.046   0.729   2.132
22896SOL    HW173535   8.070   0.798   2.064
22896SOL    HW273536   7.968   0.762   2.186
22897SOL     OW73537   8.729   0.345   2.806
22897SOL    HW173538   8.643   0.295   2.793
22897SOL    HW273539   8.791   0.291   2.862
22898SOL     OW73540   9.024   1.662   2.169
22898SOL    HW173541   9.113   1.708   2.172
22898SOL    HW273542   9.003   1.638   2.074
22899SOL     OW73543   8.255   0.605   3.327
22899SOL    HW173544   8.208   0.602   3.416
22899SOL    HW273545   8.204   0.550   3.261
22900SOL     OW73546   8.421   0.890   3.434
22900SOL    HW173547   8.467   0.806   3.405
22900SOL    HW273548   8.365   0.924   3.359
22901SOL     OW73549   8.439   0.410   3.104
22901SOL    HW173550   8.362   0.444   3.158
22901SOL    HW273551   8.405   0.359   3.025
22902SOL     OW73552   8.489   0.701   2.291
22902SOL    HW173553   8.515   0.697   2.387
22902SOL    HW273554   8.404   0.650   2.277
22903SOL     OW73555   7.524   0.811   2.651
22903SOL    HW173556   7.623   0.799   2.660
22903SOL    HW273557   7.500   0.906   2.672
22904SOL     OW73558   7.578   1.821   3.433
22904SOL    HW173559   7.568   1.806   3.532
22904SOL    HW273560   7.492   1.857   3.397
22905SOL     OW73561   8.313   0.348   2.057
22905SOL    HW173562   8.372   0.411   2.008
22905SOL    HW273563   8.332   0.254   2.028
22906SOL     OW73564   8.810   1.144   2.407
22906SOL    HW173565   8.893   1.115   2.359
22906SOL    HW273566   8.761   1.211   2.351
22907SOL     OW73567   7.998   0.196   2.747
22907SOL    HW173568   7.993   0.191   2.847
22907SOL    HW273569   8.000   0.292   2.718
22908SOL     OW73570   7.799   1.801   2.715
22908SOL    HW173571   7.849   1.715   2.721
22908SOL    HW273572   7.864   1.878   2.712
22909SOL     OW73573   9.243   1.066   2.735
22909SOL    HW173574   9.181   1.051   2.659
22909SOL    HW273575   9.191   1.077   2.820
22910SOL     OW73576   8.675   1.550   3.368
22910SOL    HW173577   8.681   1.473   3.432
22910SOL    HW273578   8.623   1.524   3.288
22911SOL     OW73579   7.769   0.943   2.104
22911SOL    HW173580   7.851   0.982   2.062
22911SOL    HW273581   7.742   0.861   2.055
22912SOL     OW73582   8.906   0.735   2.590
22912SOL    HW173583   8.901   0.670   2.665
22912SOL    HW273584   8.986   0.794   2.603
22913SOL     OW73585   7.909   1.266   3.589
22913SOL    HW173586   7.859   1.267   3.503
22913SOL    HW273587   7.846   1.248   3.665
22914SOL     OW73588   7.650   0.285   3.360
22914SOL    HW173589   7.570   0.345   3.347
22914SOL    HW273590   7.640   0.236   3.446
22915SOL     OW73591   9.080   1.377   1.943
22915SOL    HW173592   9.048   1.471   1.933
22915SOL    HW273593   9.004   1.314   1.931
22916SOL     OW73594   7.912   1.743   2.185
22916SOL    HW173595   7.945   1.782   2.271
22916SOL    HW273596   7.988   1.736   2.120
22917SOL     OW73597   8.848   0.107   2.288
22917SOL    HW173598   8.824   0.070   2.198
22917SOL    HW273599   8.947   0.123   2.292
22918SOL     OW73600   7.697   1.785   3.103
22918SOL    HW173601   7.754   1.720   3.153
22918SOL    HW273602   7.681   1.752   3.010
22919SOL     OW73603   8.388   1.698   2.766
22919SOL    HW173604   8.468   1.641   2.787
22919SOL    HW273605   8.339   1.658   2.689
22920SOL     OW73606   7.830   0.700   2.342
22920SOL    HW173607   7.875   0.610   2.339
22920SOL    HW273608   7.736   0.689   2.375
22921SOL     OW73609   8.995   0.222   3.591
22921SOL    HW173610   8.990   0.259   3.683
22921SOL    HW273611   8.923   0.153   3.579
22922SOL     OW73612   8.062   0.122   1.979
22922SOL    HW173613   8.160   0.100   1.986
22922SOL    HW273614   8.031   0.105   1.886
22923SOL     OW73615   8.336   1.514   3.057
22923SOL    HW173616   8.313   1.489   2.963
22923SOL    HW273617   8.397   1.445   3.096
22924SOL     OW73618   8.799   0.590   3.295
22924SOL    HW173619   8.827   0.547   3.380
22924SOL    HW273620   8.824   0.686   3.296
22925SOL     OW73621   8.251   1.402   2.786
22925SOL    HW173622   8.341   1.416   2.744
22925SOL    HW273623   8.180   1.404   2.715
22926SOL     OW73624   8.370   0.503   2.761
22926SOL    HW173625   8.345   0.494   2.665
22926SOL    HW273626   8.418   0.421   2.792
22927SOL     OW73627   7.987   0.064   2.374
22927SOL    HW173628   7.906   0.065   2.432
22927SOL    HW273629   7.990   0.147   2.319
22928SOL     OW73630   8.882   1.188   1.903
22928SOL    HW173631   8.914   1.112   1.960
22928SOL    HW273632   8.790   1.215   1.933
22929SOL     OW73633   7.745   0.035   2.033
22929SOL    HW173634   7.794   0.119   2.012
22929SOL    HW273635   7.807  -0.030   2.078
22930SOL     OW73636   8.383   0.236   2.342
22930SOL    HW173637   8.335   0.277   2.264
22930SOL    HW273638   8.482   0.234   2.323
22931SOL     OW73639   8.524   0.683   3.326
22931SOL    HW173640   8.444   0.622   3.329
22931SOL    HW273641   8.605   0.630   3.302
22932SOL     OW73642   8.675   1.570   2.655
22932SOL    HW173643   8.696   1.644   2.590
22932SOL    HW273644   8.743   1.570   2.728
22933SOL     OW73645   7.907   1.152   2.603
22933SOL    HW173646   7.836   1.125   2.668
22933SOL    HW273647   7.881   1.124   2.510
22934SOL     OW73648   8.719   1.797   2.453
22934SOL    HW173649   8.763   1.861   2.389
22934SOL    HW273650   8.669   1.849   2.523
22935SOL     OW73651   8.480   0.549   1.878
22935SOL    HW173652   8.439   0.631   1.839
22935SOL    HW273653   8.544   0.575   1.951
22936SOL     OW73654   7.526   0.556   3.248
22936SOL    HW173655   7.618   0.555   3.207
22936SOL    HW273656   7.520   0.630   3.315
22937SOL     OW73657   8.009   0.222   3.009
22937SOL    HW173658   8.047   0.138   3.046
22937SOL    HW273659   7.921   0.241   3.053
22938SOL     OW73660   8.314   0.454   2.504
22938SOL    HW173661   8.282   0.526   2.442
22938SOL    HW273662   8.338   0.373   2.451
22939SOL     OW73663   8.465   0.039   2.615
22939SOL    HW173664   8.393   0.044   2.546
22939SOL    HW273665   8.441  -0.030   2.684
22940SOL     OW73666   8.877   1.173   2.729
22940SOL    HW173667   8.822   1.089   2.722
22940SOL    HW273668   8.903   1.202   2.637
22941SOL     OW73669   8.914   0.590   2.854
22941SOL    HW173670   8.884   0.495   2.861
22941SOL    HW273671   8.987   0.606   2.920
22942SOL     OW73672   7.936   1.385   2.036
22942SOL    HW173673   7.849   1.370   2.083
22942SOL    HW273674   7.919   1.411   1.941
22943SOL     OW73675   9.112   1.280   2.519
22943SOL    HW173676   9.211   1.288   2.533
22943SOL    HW273677   9.067   1.364   2.550
22944SOL     OW73678   8.838   0.575   1.940
22944SOL    HW173679   8.784   0.554   2.021
22944SOL    HW273680   8.929   0.534   1.949
22945SOL     OW73681   7.975   0.256   2.190
22945SOL    HW173682   8.002   0.197   2.115
22945SOL    HW273683   7.975   0.351   2.159
22946SOL     OW73684   9.202   1.223   3.450
22946SOL    HW173685   9.293   1.184   3.437
22946SOL    HW273686   9.210   1.319   3.474
22947SOL     OW73687   8.512   1.347   3.202
22947SOL    HW173688   8.432   1.324   3.257
22947SOL    HW273689   8.595   1.321   3.251
22948SOL     OW73690   9.040   1.629   3.487
22948SOL    HW173691   9.067   1.663   3.397
22948SOL    HW273692   9.119   1.591   3.533
22949SOL     OW73693   8.559   1.195   2.962
22949SOL    HW173694   8.519   1.239   3.043
22949SOL    HW273695   8.518   1.232   2.879
22950SOL     OW73696   9.086   1.099   2.941
22950SOL    HW173697   9.091   1.180   3.000
22950SOL    HW273698   9.000   1.101   2.890
22951SOL     OW73699   8.428   1.116   3.581
22951SOL    HW173700   8.329   1.122   3.591
22951SOL    HW273701   8.451   1.036   3.525
22952SOL     OW73702   8.153   1.050   2.230
22952SOL    HW173703   8.139   1.057   2.329
22952SOL    HW273704   8.237   0.999   2.212
22953SOL     OW73705   8.722   0.386   3.124
22953SOL    HW173706   8.743   0.460   3.188
22953SOL    HW273707   8.633   0.403   3.081
22954SOL     OW73708   7.512   1.564   3.193
22954SOL    HW173709   7.466   1.646   3.159
22954SOL    HW273710   7.610   1.583   3.202
22955SOL     OW73711   7.815   1.100   2.363
22955SOL    HW173712   7.808   1.183   2.307
22955SOL    HW273713   7.819   1.020   2.303
22956SOL     OW73714   8.014   0.537   2.727
22956SOL    HW173715   8.026   0.603   2.653
22956SOL    HW273716   8.060   0.571   2.810
22957SOL     OW73717   8.720   1.445   3.004
22957SOL    HW173718   8.767   1.458   3.091
22957SOL    HW273719   8.654   1.371   3.013
22958SOL     OW73720   9.030   0.639   2.334
22958SOL    HW173721   8.999   0.700   2.407
22958SOL    HW273722   9.080   0.691   2.265
22959SOL     OW73723   7.802   1.510   3.191
22959SOL    HW173724   7.781   1.466   3.104
22959SOL    HW273725   7.899   1.536   3.194
22960SOL     OW73726   7.850   0.751   3.460
22960SOL    HW173727   7.918   0.806   3.413
22960SOL    HW273728   7.890   0.663   3.487
22961SOL     OW73729   9.035   0.779   3.532
22961SOL    HW173730   8.943   0.817   3.527
22961SOL    HW273731   9.095   0.826   3.467
22962SOL     OW73732   7.952   0.050   3.602
22962SOL    HW173733   7.910  -0.007   3.532
22962SOL    HW273734   7.886   0.119   3.634
22963SOL     OW73735   8.021   0.870   2.891
22963SOL    HW173736   8.065   0.959   2.882
22963SOL    HW273737   7.958   0.870   2.968
22964SOL     OW73738   8.808   0.862   2.907
22964SOL    HW173739   8.733   0.862   2.841
22964SOL    HW273740   8.845   0.770   2.916
22965SOL     OW73741   8.657   0.525   2.137
22965SOL    HW173742   8.670   0.441   2.191
22965SOL    HW273743   8.628   0.599   2.197
22966SOL     OW73744   7.755   0.213   3.093
22966SOL    HW173745   7.732   0.250   3.183
22966SOL    HW273746   7.725   0.118   3.087
22967SOL     OW73747   7.485   1.310   3.144
22967SOL    HW173748   7.538   1.261   3.212
22967SOL    HW273749   7.507   1.408   3.149
22968SOL     OW73750   8.180   0.634   2.926
22968SOL    HW173751   8.239   0.608   2.850
22968SOL    HW273752   8.152   0.730   2.915
22969SOL     OW73753   9.176   0.935   3.716
22969SOL    HW173754   9.130   0.928   3.627
22969SOL    HW273755   9.114   0.979   3.782
22970SOL     OW73756   7.755   0.063   2.480
22970SOL    HW173757   7.744   0.157   2.513
22970SOL    HW273758   7.750   0.000   2.557
22971SOL     OW73759   9.070   0.367   2.236
22971SOL    HW173760   9.072   0.291   2.300
22971SOL    HW273761   9.022   0.444   2.276
22972SOL     OW73762   8.471   0.766   2.828
22972SOL    HW173763   8.486   0.787   2.924
22972SOL    HW273764   8.441   0.671   2.819
22973SOL     OW73765   8.428   1.573   3.562
22973SOL    HW173766   8.408   1.617   3.474
22973SOL    HW273767   8.467   1.482   3.546
22974SOL     OW73768   9.307   1.518   3.467
22974SOL    HW173769   9.321   1.545   3.372
22974SOL    HW273770   9.390   1.540   3.520
22975SOL     OW73771   7.798   0.898   3.666
22975SOL    HW173772   7.874   0.942   3.714
22975SOL    HW273773   7.833   0.851   3.584
22976SOL     OW73774   8.988   0.274   1.987
22976SOL    HW173775   8.927   0.199   2.010
22976SOL    HW273776   9.010   0.326   2.070
22977SOL     OW73777   8.751   0.838   1.904
22977SOL    HW173778   8.785   0.745   1.919
22977SOL    HW273779   8.769   0.865   1.809
22978SOL     OW73780   8.516   1.333   2.711
22978SOL    HW173781   8.523   1.249   2.656
22978SOL    HW273782   8.578   1.402   2.675
22979SOL     OW73783   7.767   0.810   2.811
22979SOL    HW173784   7.860   0.846   2.816
22979SOL    HW273785   7.761   0.725   2.863
22980SOL     OW73786   7.787   0.509   2.868
22980SOL    HW173787   7.735   0.426   2.851
22980SOL    HW273788   7.864   0.514   2.804
22981SOL     OW73789   8.586   0.380   3.540
22981SOL    HW173790   8.541   0.443   3.604
22981SOL    HW273791   8.679   0.411   3.523
22982SOL     OW73792   8.608   0.207   3.339
22982SOL    HW173793   8.608   0.271   3.416
22982SOL    HW273794   8.636   0.255   3.256
22983SOL     OW73795   7.456   1.326   2.062
22983SOL    HW173796   7.363   1.347   2.031
22983SOL    HW273797   7.466   1.227   2.075
22984SOL     OW73798   7.536   1.801   2.789
22984SOL    HW173799   7.494   1.715   2.762
22984SOL    HW273800   7.630   1.804   2.755
22985SOL     OW73801   7.952   1.568   2.772
22985SOL    HW173802   8.018   1.642   2.781
22985SOL    HW273803   7.996   1.489   2.730
22986SOL     OW73804   8.450   0.796   3.100
22986SOL    HW173805   8.491   0.764   3.186
22986SOL    HW273806   8.354   0.769   3.097
22987SOL     OW73807   7.488   0.544   2.976
22987SOL    HW173808   7.573   0.511   2.935
22987SOL    HW273809   7.501   0.559   3.074
22988SOL     OW73810   7.637   0.520   3.584
22988SOL    HW173811   7.696   0.480   3.514
22988SOL    HW273812   7.579   0.591   3.543
22989SOL     OW73813   8.817   0.950   3.522
22989SOL    HW173814   8.856   1.039   3.542
22989SOL    HW273815   8.827   0.930   3.425
22990SOL     OW73816   8.263   0.572   2.187
22990SOL    HW173817   8.270   0.483   2.141
22990SOL    HW273818   8.169   0.606   2.179
22991SOL     OW73819   9.105   0.604   3.068
22991SOL    HW173820   9.067   0.535   3.130
22991SOL    HW273821   9.187   0.568   3.024
22992SOL     OW73822   7.700   1.564   3.606
22992SOL    HW173823   7.670   1.621   3.682
22992SOL    HW273824   7.693   1.467   3.632
22993SOL     OW73825   8.119   0.464   3.131
22993SOL    HW173826   8.085   0.375   3.101
22993SOL    HW273827   8.145   0.518   3.051
22994SOL     OW73828   8.378   1.678   3.327
22994SOL    HW173829   8.354   1.660   3.232
22994SOL    HW273830   8.408   1.772   3.337
22995SOL     OW73831   7.921   0.500   2.053
22995SOL    HW173832   7.982   0.580   2.057
22995SOL    HW273833   7.826   0.531   2.060
22996SOL     OW73834   7.607   1.137   3.328
22996SOL    HW173835   7.629   1.076   3.404
22996SOL    HW273836   7.617   1.088   3.242
22997SOL     OW73837   8.795   1.059   3.096
22997SOL    HW173838   8.819   0.996   3.022
22997SOL    HW273839   8.705   1.099   3.078
22998SOL     OW73840   8.750   0.855   2.171
22998SOL    HW173841   8.664   0.824   2.213
22998SOL    HW273842   8.746   0.841   2.072
22999SOL     OW73843   9.207   1.747   3.016
22999SOL    HW173844   9.268   1.777   2.943
22999SOL    HW273845   9.169   1.658   2.994
23000SOL     OW73846   8.700   1.731   2.990
23000SOL    HW173847   8.784   1.736   2.936
23000SOL    HW273848   8.677   1.635   3.008
23001SOL     OW73849   7.531   1.258   2.884
23001SOL    HW173850   7.526   1.257   2.984
23001SOL    HW273851   7.448   1.217   2.846
23002SOL     OW73852   8.136   1.662   3.578
23002SOL    HW173853   8.080   1.743   3.587
23002SOL    HW273854   8.188   1.666   3.492
23003SOL     OW73855   9.174   0.135   2.385
23003SOL    HW173856   9.247   0.118   2.318
23003SOL    HW273857   9.143   0.048   2.423
23004SOL     OW73858   7.578   1.794   3.713
23004SOL    HW173859   7.537   1.720   3.766
23004SOL    HW273860   7.642   1.845   3.771
23005SOL     OW73861   8.728   0.927   2.534
23005SOL    HW173862   8.788   0.846   2.536
23005SOL    HW273863   8.768   0.996   2.474
23006SOL     OW73864   8.278   1.273   3.284
23006SOL    HW173865   8.273   1.306   3.379
23006SOL    HW273866   8.192   1.292   3.238
23007SOL     OW73867   8.120   1.616   2.016
23007SOL    HW173868   8.129   1.626   1.917
23007SOL    HW273869   8.080   1.527   2.037
23008SOL     OW73870   9.098   1.720   3.256
23008SOL    HW173871   9.151   1.730   3.172
23008SOL    HW273872   9.071   1.810   3.290
23009SOL     OW73873   9.289   0.175   2.825
23009SOL    HW173874   9.328   0.090   2.789
23009SOL    HW273875   9.191   0.177   2.806
23010SOL     OW73876   7.711   0.326   2.582
23010SOL    HW173877   7.632   0.377   2.548
23010SOL    HW273878   7.702   0.311   2.680
23011SOL     OW73879   8.270   1.002   3.234
23011SOL    HW173880   8.310   1.001   3.142
23011SOL    HW273881   8.280   1.094   3.274
23012SOL     OW73882   8.364   0.910   2.153
23012SOL    HW173883   8.427   0.948   2.085
23012SOL    HW273884   8.404   0.827   2.192
23013SOL     OW73885   8.952   1.607   1.906
23013SOL    HW173886   8.860   1.644   1.913
23013SOL    HW273887   8.990   1.627   1.816
23014SOL     OW73888   7.820   1.288   3.352
23014SOL    HW173889   7.807   1.381   3.318
23014SOL    HW273890   7.736   1.236   3.339
23015SOL     OW73891   9.062   1.292   3.151
23015SOL    HW173892   9.122   1.295   3.231
23015SOL    HW273893   8.987   1.356   3.164
23016SOL     OW73894   8.487   1.098   2.558
23016SOL    HW173895   8.417   1.051   2.612
23016SOL    HW273896   8.546   1.030   2.515
23017SOL     OW73897   8.462   0.236   2.833
23017SOL    HW173898   8.454   0.200   2.740
23017SOL    HW273899   8.460   0.160   2.898
23018SOL     OW73900   8.038   1.487   2.353
23018SOL    HW173901   8.080   1.429   2.283
23018SOL    HW273902   7.994   1.566   2.309
23019SOL     OW73903   7.703   1.348   2.152
23019SOL    HW173904   7.607   1.349   2.125
23019SOL    HW273905   7.715   1.401   2.236
23020SOL     OW73906   7.553   1.013   3.588
23020SOL    HW173907   7.476   0.980   3.642
23020SOL    HW273908   7.638   0.983   3.630
23021SOL     OW73909   8.120   0.203   3.351
23021SOL    HW173910   8.210   0.187   3.311
23021SOL    HW273911   8.128   0.208   3.450
23022SOL     OW73912   8.888   0.856   3.260
23022SOL    HW173913   8.831   0.908   3.197
23022SOL    HW273914   8.984   0.868   3.236
23023SOL     OW73915   7.520   0.166   2.180
23023SOL    HW173916   7.503   0.249   2.126
23023SOL    HW273917   7.610   0.129   2.158
23024SOL     OW73918   8.061   0.842   3.293
23024SOL    HW173919   8.117   0.923   3.276
23024SOL    HW273920   8.120   0.762   3.296
23025SOL     OW73921   8.941   1.767   2.821
23025SOL    HW173922   8.974   1.831   2.752
23025SOL    HW273923   9.007   1.761   2.896
23026SOL     OW73924   8.164   0.565   3.570
23026SOL    HW173925   8.183   0.630   3.644
23026SOL    HW273926   8.224   0.485   3.579
23027SOL     OW73927   8.898   1.220   3.495
23027SOL    HW173928   8.889   1.210   3.594
23027SOL    HW273929   8.994   1.213   3.469
23028SOL     OW73930   7.838   1.741   3.422
23028SOL    HW173931   7.747   1.782   3.420
23028SOL    HW273932   7.831   1.647   3.454
23029SOL     OW73933   9.122   0.883   3.116
23029SOL    HW173934   9.095   0.794   3.079
23029SOL    HW273935   9.123   0.951   3.043
23030SOL     OW73936   8.673   0.325   2.311
23030SOL    HW173937   8.738   0.251   2.300
23030SOL    HW273938   8.693   0.375   2.395
23031SOL     OW73939   8.042   0.745   2.514
23031SOL    HW173940   8.092   0.830   2.495
23031SOL    HW273941   7.954   0.747   2.466
23032SOL     OW73942   9.178   0.934   3.379
23032SOL    HW173943   9.216   1.025   3.394
23032SOL    HW273944   9.170   0.917   3.280
23033SOL     OW73945   8.109   1.790   2.815
23033SOL    HW173946   8.063   1.878   2.802
23033SOL    HW273947   8.208   1.802   2.808
23034SOL     OW73948   8.307   0.956   2.723
23034SOL    HW173949   8.361   0.887   2.771
23034SOL    HW273950   8.275   1.025   2.789
23035SOL     OW73951   8.531   0.984   1.949
23035SOL    HW173952   8.508   1.037   1.867
23035SOL    HW273953   8.612   0.928   1.930
23036SOL     OW73954   9.309   1.569   2.713
23036SOL    HW173955   9.238   1.557   2.643
23036SOL    HW273956   9.310   1.490   2.773
23037SOL     OW73957   7.669   1.314   3.706
23037SOL    HW173958   7.604   1.241   3.685
23037SOL    HW273959   7.673   1.328   3.804
23038SOL     OW73960   7.527   1.240   2.515
23038SOL    HW173961   7.526   1.193   2.603
23038SOL    HW273962   7.609   1.212   2.464
23039SOL     OW73963   8.120   1.391   3.486
23039SOL    HW173964   8.042   1.341   3.524
23039SOL    HW273965   8.117   1.486   3.517
23040SOL     OW73966   9.272   0.192   3.089
23040SOL    HW173967   9.268   0.102   3.133
23040SOL    HW273968   9.275   0.181   2.990
23041SOL     OW73969   7.876   0.424   2.382
23041SOL    HW173970   7.906   0.352   2.320
23041SOL    HW273971   7.837   0.384   2.465
23042SOL     OW73972   9.153   1.487   2.966
23042SOL    HW173973   9.060   1.462   2.939
23042SOL    HW273974   9.179   1.437   3.048
23043SOL     OW73975   7.765   0.547   3.142
23043SOL    HW173976   7.803   0.488   3.214
23043SOL    HW273977   7.805   0.521   3.054
23044SOL     OW73978   8.260   1.586   2.549
23044SOL    HW173979   8.292   1.596   2.455
23044SOL    HW273980   8.181   1.524   2.551
23045SOL     OW73981   8.872   0.214   2.974
23045SOL    HW173982   8.924   0.149   3.029
23045SOL    HW273983   8.823   0.277   3.035
23046SOL     OW73984   8.449   0.034   3.016
23046SOL    HW173985   8.386  -0.038   2.985
23046SOL    HW273986   8.542  -0.002   3.016
23047SOL     OW73987   8.218   1.330   2.163
23047SOL    HW173988   8.172   1.243   2.180
23047SOL    HW273989   8.309   1.327   2.204
23048SOL     OW73990   8.066   1.567   3.146
23048SOL    HW173991   8.061   1.649   3.203
23048SOL    HW273992   8.155   1.564   3.101
23049SOL     OW73993   8.800   0.052   2.030
23049SOL    HW173994   8.835   0.011   1.946
23049SOL    HW273995   8.710   0.014   2.050
23050SOL     OW73996   8.748   0.453   2.553
23050SOL    HW173997   8.689   0.533   2.557
23050SOL    HW273998   8.763   0.418   2.646
23051SOL     OW73999   9.041   0.221   2.744
23051SOL    HW174000   8.957   0.220   2.798
23051SOL    HW274001   9.043   0.304   2.688
23052SOL     OW74002   7.487   1.077   2.162
23052SOL    HW174003   7.586   1.066   2.153
23052SOL    HW274004   7.447   0.991   2.194
23053SOL     OW74005   8.323   1.646   2.199
23053SOL    HW174006   8.246   1.611   2.145
23053SOL    HW274007   8.291   1.717   2.261
23054SOL     OW74008   7.678   0.628   3.837
23054SOL    HW174009   7.585   0.626   3.874
23054SOL    HW274010   7.679   0.589   3.745
23055SOL     OW74011   7.673   0.275   4.720
23055SOL    HW174012   7.708   0.258   4.812
23055SOL    HW274013   7.585   0.230   4.708
23056SOL     OW74014   7.467   0.368   4.371
23056SOL    HW174015   7.385   0.411   4.410
23056SOL    HW274016   7.439   0.295   4.308
23057SOL     OW74017   8.017   1.275   4.889
23057SOL    HW174018   7.924   1.268   4.852
23057SOL    HW274019   8.028   1.364   4.933
23058SOL     OW74020   9.003   1.511   4.427
23058SOL    HW174021   8.946   1.495   4.508
23058SOL    HW274022   8.944   1.521   4.347
23059SOL     OW74023   8.583   0.703   4.441
23059SOL    HW174024   8.640   0.781   4.416
23059SOL    HW274025   8.523   0.729   4.517
23060SOL     OW74026   9.203   0.607   3.955
23060SOL    HW174027   9.191   0.594   3.856
23060SOL    HW274028   9.173   0.526   4.004
23061SOL     OW74029   8.216   1.144   4.747
23061SOL    HW174030   8.138   1.161   4.807
23061SOL    HW274031   8.250   1.231   4.711
23062SOL     OW74032   8.298   0.798   5.547
23062SOL    HW174033   8.294   0.874   5.612
23062SOL    HW274034   8.320   0.834   5.456
23063SOL     OW74035   8.133   1.012   4.389
23063SOL    HW174036   8.202   0.996   4.459
23063SOL    HW274037   8.060   1.069   4.427
23064SOL     OW74038   8.134   1.161   5.527
23064SOL    HW174039   8.194   1.240   5.541
23064SOL    HW274040   8.048   1.192   5.486
23065SOL     OW74041   7.783   1.435   4.785
23065SOL    HW174042   7.705   1.404   4.732
23065SOL    HW274043   7.841   1.493   4.728
23066SOL     OW74044   8.908   1.505   5.063
23066SOL    HW174045   8.932   1.599   5.089
23066SOL    HW274046   8.892   1.451   5.145
23067SOL     OW74047   7.886   0.392   5.223
23067SOL    HW174048   7.968   0.336   5.232
23067SOL    HW274049   7.805   0.334   5.227
23068SOL     OW74050   9.051   0.447   4.461
23068SOL    HW174051   8.977   0.493   4.411
23068SOL    HW274052   9.102   0.515   4.514
23069SOL     OW74053   7.679   1.713   4.207
23069SOL    HW174054   7.713   1.790   4.261
23069SOL    HW274055   7.723   1.713   4.117
23070SOL     OW74056   8.575   1.341   5.414
23070SOL    HW174057   8.622   1.341   5.502
23070SOL    HW274058   8.527   1.254   5.403
23071SOL     OW74059   7.678   1.434   4.262
23071SOL    HW174060   7.652   1.530   4.262
23071SOL    HW274061   7.607   1.380   4.307
23072SOL     OW74062   7.688   1.091   4.610
23072SOL    HW174063   7.702   1.007   4.662
23072SOL    HW274064   7.633   1.155   4.665
23073SOL     OW74065   8.068   1.786   5.163
23073SOL    HW174066   7.976   1.769   5.198
23073SOL    HW274067   8.096   1.878   5.189
23074SOL     OW74068   8.054   0.964   3.847
23074SOL    HW174069   8.061   1.048   3.793
23074SOL    HW274070   8.100   0.977   3.935
23075SOL     OW74071   9.042   0.114   5.204
23075SOL    HW174072   9.024   0.181   5.132
23075SOL    HW274073   9.039   0.160   5.293
23076SOL     OW74074   7.570   0.643   4.287
23076SOL    HW174075   7.525   0.555   4.304
23076SOL    HW274076   7.569   0.697   4.371
23077SOL     OW74077   9.290   1.767   4.083
23077SOL    HW174078   9.344   1.738   4.163
23077SOL    HW274079   9.320   1.857   4.054
23078SOL     OW74080   7.475   1.596   3.841
23078SOL    HW174081   7.456   1.500   3.862
23078SOL    HW274082   7.442   1.654   3.916
23079SOL     OW74083   9.137   0.922   4.336
23079SOL    HW174084   9.232   0.893   4.344
23079SOL    HW274085   9.129   0.987   4.261
23080SOL     OW74086   9.089   1.108   4.156
23080SOL    HW174087   9.175   1.110   4.104
23080SOL    HW274088   9.103   1.155   4.244
23081SOL     OW74089   7.561   0.737   5.321
23081SOL    HW174090   7.649   0.724   5.366
23081SOL    HW274091   7.548   0.834   5.299
23082SOL     OW74092   8.061   1.365   4.450
23082SOL    HW174093   8.012   1.278   4.459
23082SOL    HW274094   8.038   1.408   4.363
23083SOL     OW74095   8.741   1.228   5.147
23083SOL    HW174096   8.778   1.155   5.089
23083SOL    HW274097   8.793   1.233   5.232
23084SOL     OW74098   8.257   0.004   4.226
23084SOL    HW174099   8.297   0.095   4.217
23084SOL    HW274100   8.157   0.012   4.232
23085SOL     OW74101   7.645   0.976   4.988
23085SOL    HW174102   7.734   0.931   4.974
23085SOL    HW274103   7.572   0.911   4.969
23086SOL     OW74104   8.973   0.999   3.914
23086SOL    HW174105   8.910   0.923   3.927
23086SOL    HW274106   9.021   1.017   4.000
23087SOL     OW74107   8.635   1.792   5.340
23087SOL    HW174108   8.659   1.852   5.264
23087SOL    HW274109   8.642   1.697   5.310
23088SOL     OW74110   7.765   0.251   5.525
23088SOL    HW174111   7.836   0.322   5.531
23088SOL    HW274112   7.677   0.290   5.553
23089SOL     OW74113   8.914   1.417   4.677
23089SOL    HW174114   8.855   1.423   4.757
23089SOL    HW274115   8.899   1.329   4.631
23090SOL     OW74116   9.115   1.714   4.296
23090SOL    HW174117   9.074   1.691   4.208
23090SOL    HW274118   9.097   1.640   4.361
23091SOL     OW74119   8.046   0.729   3.994
23091SOL    HW174120   8.070   0.798   3.926
23091SOL    HW274121   7.968   0.762   4.048
23092SOL     OW74122   8.729   0.345   4.668
23092SOL    HW174123   8.643   0.295   4.655
23092SOL    HW274124   8.791   0.291   4.724
23093SOL     OW74125   9.024   1.662   4.031
23093SOL    HW174126   9.113   1.708   4.034
23093SOL    HW274127   9.003   1.638   3.936
23094SOL     OW74128   8.255   0.605   5.189
23094SOL    HW174129   8.208   0.602   5.278
23094SOL    HW274130   8.204   0.550   5.123
23095SOL     OW74131   8.842   0.469   5.398
23095SOL    HW174132   8.822   0.512   5.486
23095SOL    HW274133   8.920   0.407   5.407
23096SOL     OW74134   8.421   0.890   5.296
23096SOL    HW174135   8.467   0.806   5.267
23096SOL    HW274136   8.365   0.924   5.221
23097SOL     OW74137   8.439   0.410   4.966
23097SOL    HW174138   8.362   0.444   5.020
23097SOL    HW274139   8.405   0.359   4.887
23098SOL     OW74140   8.489   0.701   4.153
23098SOL    HW174141   8.515   0.697   4.249
23098SOL    HW274142   8.404   0.650   4.139
23099SOL     OW74143   7.524   0.811   4.513
23099SOL    HW174144   7.623   0.799   4.522
23099SOL    HW274145   7.500   0.906   4.534
23100SOL     OW74146   7.578   1.821   5.295
23100SOL    HW174147   7.568   1.806   5.394
23100SOL    HW274148   7.492   1.857   5.259
23101SOL     OW74149   8.313   0.348   3.919
23101SOL    HW174150   8.372   0.411   3.870
23101SOL    HW274151   8.332   0.254   3.890
23102SOL     OW74152   9.167   0.585   5.555
23102SOL    HW174153   9.141   0.674   5.519
23102SOL    HW274154   9.165   0.517   5.482
23103SOL     OW74155   8.810   1.144   4.269
23103SOL    HW174156   8.893   1.115   4.221
23103SOL    HW274157   8.761   1.211   4.213
23104SOL     OW74158   7.998   0.196   4.609
23104SOL    HW174159   7.993   0.191   4.709
23104SOL    HW274160   8.000   0.292   4.580
23105SOL     OW74161   8.456   1.456   4.201
23105SOL    HW174162   8.410   1.528   4.149
23105SOL    HW274163   8.452   1.476   4.299
23106SOL     OW74164   7.799   1.801   4.577
23106SOL    HW174165   7.849   1.715   4.583
23106SOL    HW274166   7.864   1.878   4.574
23107SOL     OW74167   8.675   1.550   5.230
23107SOL    HW174168   8.681   1.473   5.294
23107SOL    HW274169   8.623   1.524   5.150
23108SOL     OW74170   7.769   0.943   3.966
23108SOL    HW174171   7.851   0.982   3.924
23108SOL    HW274172   7.742   0.861   3.917
23109SOL     OW74173   8.906   0.735   4.452
23109SOL    HW174174   8.901   0.670   4.527
23109SOL    HW274175   8.986   0.794   4.465
23110SOL     OW74176   8.559   1.776   3.961
23110SOL    HW174177   8.499   1.714   4.011
23110SOL    HW274178   8.590   1.732   3.876
23111SOL     OW74179   7.650   0.285   5.222
23111SOL    HW174180   7.570   0.345   5.209
23111SOL    HW274181   7.640   0.236   5.308
23112SOL     OW74182   9.080   1.377   3.805
23112SOL    HW174183   9.048   1.471   3.795
23112SOL    HW274184   9.004   1.314   3.793
23113SOL     OW74185   7.912   1.743   4.047
23113SOL    HW174186   7.945   1.782   4.133
23113SOL    HW274187   7.988   1.736   3.982
23114SOL     OW74188   8.848   0.107   4.150
23114SOL    HW174189   8.824   0.070   4.060
23114SOL    HW274190   8.947   0.123   4.154
23115SOL     OW74191   7.697   1.785   4.965
23115SOL    HW174192   7.754   1.720   5.015
23115SOL    HW274193   7.681   1.752   4.872
23116SOL     OW74194   8.388   1.698   4.628
23116SOL    HW174195   8.468   1.641   4.649
23116SOL    HW274196   8.339   1.658   4.551
23117SOL     OW74197   7.830   0.700   4.204
23117SOL    HW174198   7.875   0.610   4.201
23117SOL    HW274199   7.736   0.689   4.237
23118SOL     OW74200   8.995   0.222   5.453
23118SOL    HW174201   8.990   0.259   5.545
23118SOL    HW274202   8.923   0.153   5.441
23119SOL     OW74203   8.229   0.264   5.473
23119SOL    HW174204   8.296   0.203   5.516
23119SOL    HW274205   8.156   0.283   5.538
23120SOL     OW74206   8.336   1.514   4.919
23120SOL    HW174207   8.313   1.489   4.825
23120SOL    HW274208   8.397   1.445   4.958
23121SOL     OW74209   8.799   0.590   5.157
23121SOL    HW174210   8.827   0.547   5.242
23121SOL    HW274211   8.824   0.686   5.158
23122SOL     OW74212   8.251   1.402   4.648
23122SOL    HW174213   8.341   1.416   4.606
23122SOL    HW274214   8.180   1.404   4.577
23123SOL     OW74215   8.370   0.503   4.623
23123SOL    HW174216   8.345   0.494   4.527
23123SOL    HW274217   8.418   0.421   4.654
23124SOL     OW74218   7.987   0.064   4.236
23124SOL    HW174219   7.906   0.065   4.294
23124SOL    HW274220   7.990   0.147   4.181
23125SOL     OW74221   8.882   1.188   3.765
23125SOL    HW174222   8.914   1.112   3.822
23125SOL    HW274223   8.790   1.215   3.795
23126SOL     OW74224   7.745   0.035   3.895
23126SOL    HW174225   7.794   0.119   3.874
23126SOL    HW274226   7.807  -0.030   3.940
23127SOL     OW74227   8.383   0.236   4.204
23127SOL    HW174228   8.335   0.277   4.126
23127SOL    HW274229   8.482   0.234   4.185
23128SOL     OW74230   8.524   0.683   5.188
23128SOL    HW174231   8.444   0.622   5.191
23128SOL    HW274232   8.605   0.630   5.164
23129SOL     OW74233   7.907   1.152   4.465
23129SOL    HW174234   7.836   1.125   4.530
23129SOL    HW274235   7.881   1.124   4.372
23130SOL     OW74236   8.719   1.797   4.315
23130SOL    HW174237   8.763   1.861   4.251
23130SOL    HW274238   8.669   1.849   4.385
23131SOL     OW74239   8.480   0.549   3.740
23131SOL    HW174240   8.439   0.631   3.701
23131SOL    HW274241   8.544   0.575   3.813
23132SOL     OW74242   7.526   0.556   5.110
23132SOL    HW174243   7.618   0.555   5.069
23132SOL    HW274244   7.520   0.630   5.177
23133SOL     OW74245   8.009   0.222   4.871
23133SOL    HW174246   8.047   0.138   4.908
23133SOL    HW274247   7.921   0.241   4.915
23134SOL     OW74248   8.314   0.454   4.366
23134SOL    HW174249   8.282   0.526   4.304
23134SOL    HW274250   8.338   0.373   4.313
23135SOL     OW74251   8.465   0.039   4.477
23135SOL    HW174252   8.393   0.044   4.408
23135SOL    HW274253   8.441  -0.030   4.546
23136SOL     OW74254   8.877   1.173   4.591
23136SOL    HW174255   8.822   1.089   4.584
23136SOL    HW274256   8.903   1.202   4.499
23137SOL     OW74257   8.914   0.590   4.716
23137SOL    HW174258   8.884   0.495   4.723
23137SOL    HW274259   8.987   0.606   4.782
23138SOL     OW74260   9.305   0.833   4.101
23138SOL    HW174261   9.347   0.769   4.165
23138SOL    HW274262   9.267   0.782   4.023
23139SOL     OW74263   7.936   1.385   3.898
23139SOL    HW174264   7.849   1.370   3.945
23139SOL    HW274265   7.919   1.411   3.803
23140SOL     OW74266   9.112   1.280   4.381
23140SOL    HW174267   9.211   1.288   4.395
23140SOL    HW274268   9.067   1.364   4.412
23141SOL     OW74269   8.838   0.575   3.802
23141SOL    HW174270   8.784   0.554   3.883
23141SOL    HW274271   8.929   0.534   3.811
23142SOL     OW74272   7.975   0.256   4.052
23142SOL    HW174273   8.002   0.197   3.977
23142SOL    HW274274   7.975   0.351   4.021
23143SOL     OW74275   9.202   1.223   5.312
23143SOL    HW174276   9.293   1.184   5.299
23143SOL    HW274277   9.210   1.319   5.336
23144SOL     OW74278   8.512   1.347   5.064
23144SOL    HW174279   8.432   1.324   5.119
23144SOL    HW274280   8.595   1.321   5.113
23145SOL     OW74281   9.040   1.629   5.349
23145SOL    HW174282   9.067   1.663   5.259
23145SOL    HW274283   9.119   1.591   5.395
23146SOL     OW74284   8.559   1.195   4.824
23146SOL    HW174285   8.519   1.239   4.905
23146SOL    HW274286   8.518   1.232   4.741
23147SOL     OW74287   9.086   1.099   4.803
23147SOL    HW174288   9.091   1.180   4.862
23147SOL    HW274289   9.000   1.101   4.752
23148SOL     OW74290   8.363   0.089   5.126
23148SOL    HW174291   8.388   0.069   5.031
23148SOL    HW274292   8.435   0.145   5.168
23149SOL     OW74293   8.428   1.116   5.443
23149SOL    HW174294   8.329   1.122   5.453
23149SOL    HW274295   8.451   1.036   5.387
23150SOL     OW74296   8.153   1.050   4.092
23150SOL    HW174297   8.139   1.057   4.191
23150SOL    HW274298   8.237   0.999   4.074
23151SOL     OW74299   7.858   0.813   4.975
23151SOL    HW174300   7.944   0.825   5.025
23151SOL    HW274301   7.816   0.726   5.002
23152SOL     OW74302   8.722   0.386   4.986
23152SOL    HW174303   8.743   0.460   5.050
23152SOL    HW274304   8.633   0.403   4.943
23153SOL     OW74305   7.512   1.564   5.055
23153SOL    HW174306   7.466   1.646   5.021
23153SOL    HW274307   7.610   1.583   5.064
23154SOL     OW74308   7.815   1.100   4.225
23154SOL    HW174309   7.808   1.183   4.169
23154SOL    HW274310   7.819   1.020   4.165
23155SOL     OW74311   8.014   0.537   4.589
23155SOL    HW174312   8.026   0.603   4.515
23155SOL    HW274313   8.060   0.571   4.672
23156SOL     OW74314   8.700   1.348   4.112
23156SOL    HW174315   8.750   1.425   4.152
23156SOL    HW274316   8.605   1.350   4.144
23157SOL     OW74317   8.720   1.445   4.866
23157SOL    HW174318   8.767   1.458   4.953
23157SOL    HW274319   8.654   1.371   4.875
23158SOL     OW74320   9.030   0.639   4.196
23158SOL    HW174321   8.999   0.700   4.269
23158SOL    HW274322   9.080   0.691   4.127
23159SOL     OW74323   7.802   1.510   5.053
23159SOL    HW174324   7.781   1.466   4.966
23159SOL    HW274325   7.899   1.536   5.056
23160SOL     OW74326   7.850   0.751   5.322
23160SOL    HW174327   7.918   0.806   5.275
23160SOL    HW274328   7.890   0.663   5.349
23161SOL     OW74329   9.035   0.779   5.394
23161SOL    HW174330   8.943   0.817   5.389
23161SOL    HW274331   9.095   0.826   5.329
23162SOL     OW74332   8.461   0.105   5.494
23162SOL    HW174333   8.467   0.190   5.442
23162SOL    HW274334   8.493   0.029   5.437
23163SOL     OW74335   7.952   0.050   5.464
23163SOL    HW174336   7.910  -0.007   5.394
23163SOL    HW274337   7.886   0.119   5.496
23164SOL     OW74338   8.021   0.870   4.753
23164SOL    HW174339   8.065   0.959   4.744
23164SOL    HW274340   7.958   0.870   4.830
23165SOL     OW74341   8.808   0.862   4.769
23165SOL    HW174342   8.733   0.862   4.703
23165SOL    HW274343   8.845   0.770   4.778
23166SOL     OW74344   8.657   0.525   3.999
23166SOL    HW174345   8.670   0.441   4.053
23166SOL    HW274346   8.628   0.599   4.059
23167SOL     OW74347   7.755   0.213   4.955
23167SOL    HW174348   7.732   0.250   5.045
23167SOL    HW274349   7.725   0.118   4.949
23168SOL     OW74350   7.485   1.310   5.006
23168SOL    HW174351   7.538   1.261   5.074
23168SOL    HW274352   7.507   1.408   5.011
23169SOL     OW74353   8.180   0.634   4.788
23169SOL    HW174354   8.239   0.608   4.712
23169SOL    HW274355   8.152   0.730   4.777
23170SOL     OW74356   9.176   0.935   5.578
23170SOL    HW174357   9.130   0.928   5.489
23170SOL    HW274358   9.114   0.979   5.644
23171SOL     OW74359   7.755   0.063   4.342
23171SOL    HW174360   7.744   0.157   4.375
23171SOL    HW274361   7.750   0.000   4.419
23172SOL     OW74362   9.070   0.367   4.098
23172SOL    HW174363   9.072   0.291   4.162
23172SOL    HW274364   9.022   0.444   4.138
23173SOL     OW74365   8.471   0.766   4.690
23173SOL    HW174366   8.486   0.787   4.786
23173SOL    HW274367   8.441   0.671   4.681
23174SOL     OW74368   8.428   1.573   5.424
23174SOL    HW174369   8.408   1.617   5.336
23174SOL    HW274370   8.467   1.482   5.408
23175SOL     OW74371   9.307   1.518   5.329
23175SOL    HW174372   9.321   1.545   5.234
23175SOL    HW274373   9.390   1.540   5.382
23176SOL     OW74374   7.798   0.898   5.528
23176SOL    HW174375   7.874   0.942   5.576
23176SOL    HW274376   7.833   0.851   5.446
23177SOL     OW74377   8.988   0.274   3.849
23177SOL    HW174378   8.927   0.199   3.872
23177SOL    HW274379   9.010   0.326   3.932
23178SOL     OW74380   8.751   0.838   3.766
23178SOL    HW174381   8.785   0.745   3.781
23178SOL    HW274382   8.769   0.865   3.671
23179SOL     OW74383   8.516   1.333   4.573
23179SOL    HW174384   8.523   1.249   4.518
23179SOL    HW274385   8.578   1.402   4.537
23180SOL     OW74386   7.767   0.810   4.673
23180SOL    HW174387   7.860   0.846   4.678
23180SOL    HW274388   7.761   0.725   4.725
23181SOL     OW74389   8.586   0.380   5.402
23181SOL    HW174390   8.541   0.443   5.466
23181SOL    HW274391   8.679   0.411   5.385
23182SOL     OW74392   8.608   0.207   5.201
23182SOL    HW174393   8.608   0.271   5.278
23182SOL    HW274394   8.636   0.255   5.118
23183SOL     OW74395   7.456   1.326   3.924
23183SOL    HW174396   7.363   1.347   3.893
23183SOL    HW274397   7.466   1.227   3.937
23184SOL     OW74398   7.536   1.801   4.651
23184SOL    HW174399   7.494   1.715   4.624
23184SOL    HW274400   7.630   1.804   4.617
23185SOL     OW74401   7.952   1.568   4.634
23185SOL    HW174402   8.018   1.642   4.643
23185SOL    HW274403   7.996   1.489   4.592
23186SOL     OW74404   8.450   0.796   4.962
23186SOL    HW174405   8.491   0.764   5.048
23186SOL    HW274406   8.354   0.769   4.959
23187SOL     OW74407   7.488   0.544   4.838
23187SOL    HW174408   7.573   0.511   4.797
23187SOL    HW274409   7.501   0.559   4.936
23188SOL     OW74410   7.637   0.520   5.446
23188SOL    HW174411   7.696   0.480   5.376
23188SOL    HW274412   7.579   0.591   5.405
23189SOL     OW74413   8.817   0.950   5.384
23189SOL    HW174414   8.856   1.039   5.404
23189SOL    HW274415   8.827   0.930   5.287
23190SOL     OW74416   8.263   0.572   4.049
23190SOL    HW174417   8.270   0.483   4.003
23190SOL    HW274418   8.169   0.606   4.041
23191SOL     OW74419   9.105   0.604   4.930
23191SOL    HW174420   9.067   0.535   4.992
23191SOL    HW274421   9.187   0.568   4.886
23192SOL     OW74422   8.119   0.464   4.993
23192SOL    HW174423   8.085   0.375   4.963
23192SOL    HW274424   8.145   0.518   4.913
23193SOL     OW74425   8.378   1.678   5.189
23193SOL    HW174426   8.354   1.660   5.094
23193SOL    HW274427   8.408   1.772   5.199
23194SOL     OW74428   7.921   0.500   3.915
23194SOL    HW174429   7.982   0.580   3.919
23194SOL    HW274430   7.826   0.531   3.922
23195SOL     OW74431   7.607   1.137   5.190
23195SOL    HW174432   7.629   1.076   5.266
23195SOL    HW274433   7.617   1.088   5.104
23196SOL     OW74434   8.795   1.059   4.958
23196SOL    HW174435   8.819   0.996   4.884
23196SOL    HW274436   8.705   1.099   4.940
23197SOL     OW74437   8.750   0.855   4.033
23197SOL    HW174438   8.664   0.824   4.075
23197SOL    HW274439   8.746   0.841   3.934
23198SOL     OW74440   9.207   1.747   4.878
23198SOL    HW174441   9.268   1.777   4.805
23198SOL    HW274442   9.169   1.658   4.856
23199SOL     OW74443   8.700   1.731   4.852
23199SOL    HW174444   8.784   1.736   4.798
23199SOL    HW274445   8.677   1.635   4.870
23200SOL     OW74446   7.531   1.258   4.746
23200SOL    HW174447   7.526   1.257   4.846
23200SOL    HW274448   7.448   1.217   4.708
23201SOL     OW74449   8.136   1.662   5.440
23201SOL    HW174450   8.080   1.743   5.449
23201SOL    HW274451   8.188   1.666   5.354
23202SOL     OW74452   9.174   0.135   4.247
23202SOL    HW174453   9.247   0.118   4.180
23202SOL    HW274454   9.143   0.048   4.285
23203SOL     OW74455   8.836   1.573   4.201
23203SOL    HW174456   8.903   1.585   4.127
23203SOL    HW274457   8.796   1.662   4.224
23204SOL     OW74458   7.578   1.794   5.575
23204SOL    HW174459   7.537   1.720   5.628
23204SOL    HW274460   7.642   1.845   5.633
23205SOL     OW74461   8.728   0.927   4.396
23205SOL    HW174462   8.788   0.846   4.398
23205SOL    HW274463   8.768   0.996   4.336
23206SOL     OW74464   8.278   1.273   5.146
23206SOL    HW174465   8.273   1.306   5.241
23206SOL    HW274466   8.192   1.292   5.100
23207SOL     OW74467   8.120   1.616   3.878
23207SOL    HW174468   8.129   1.626   3.779
23207SOL    HW274469   8.080   1.527   3.899
23208SOL     OW74470   9.098   1.720   5.118
23208SOL    HW174471   9.151   1.730   5.034
23208SOL    HW274472   9.071   1.810   5.152
23209SOL     OW74473   9.289   0.175   4.687
23209SOL    HW174474   9.328   0.090   4.651
23209SOL    HW274475   9.191   0.177   4.668
23210SOL     OW74476   7.711   0.326   4.444
23210SOL    HW174477   7.632   0.377   4.410
23210SOL    HW274478   7.702   0.311   4.542
23211SOL     OW74479   8.642   1.612   3.755
23211SOL    HW174480   8.648   1.519   3.792
23211SOL    HW274481   8.583   1.612   3.675
23212SOL     OW74482   8.270   1.002   5.096
23212SOL    HW174483   8.310   1.001   5.004
23212SOL    HW274484   8.280   1.094   5.136
23213SOL     OW74485   8.364   0.910   4.015
23213SOL    HW174486   8.427   0.948   3.947
23213SOL    HW274487   8.404   0.827   4.054
23214SOL     OW74488   8.952   1.607   3.768
23214SOL    HW174489   8.860   1.644   3.775
23214SOL    HW274490   8.990   1.627   3.678
23215SOL     OW74491   7.820   1.288   5.214
23215SOL    HW174492   7.807   1.381   5.180
23215SOL    HW274493   7.736   1.236   5.201
23216SOL     OW74494   9.062   1.292   5.013
23216SOL    HW174495   9.122   1.295   5.093
23216SOL    HW274496   8.987   1.356   5.026
23217SOL     OW74497   8.487   1.098   4.420
23217SOL    HW174498   8.417   1.051   4.474
23217SOL    HW274499   8.546   1.030   4.377
23218SOL     OW74500   8.462   0.236   4.695
23218SOL    HW174501   8.454   0.200   4.602
23218SOL    HW274502   8.460   0.160   4.760
23219SOL     OW74503   8.038   1.487   4.215
23219SOL    HW174504   8.080   1.429   4.145
23219SOL    HW274505   7.994   1.566   4.171
23220SOL     OW74506   9.157   0.385   5.105
23220SOL    HW174507   9.230   0.454   5.109
23220SOL    HW274508   9.185   0.310   5.046
23221SOL     OW74509   7.703   1.348   4.014
23221SOL    HW174510   7.607   1.349   3.987
23221SOL    HW274511   7.715   1.401   4.098
23222SOL     OW74512   7.553   1.013   5.450
23222SOL    HW174513   7.476   0.980   5.504
23222SOL    HW274514   7.638   0.983   5.492
23223SOL     OW74515   8.120   0.203   5.213
23223SOL    HW174516   8.210   0.187   5.173
23223SOL    HW274517   8.128   0.208   5.312
23224SOL     OW74518   7.523   0.345   3.757
23224SOL    HW174519   7.431   0.317   3.728
23224SOL    HW274520   7.554   0.422   3.701
23225SOL     OW74521   8.888   0.856   5.122
23225SOL    HW174522   8.831   0.908   5.059
23225SOL    HW274523   8.984   0.868   5.098
23226SOL     OW74524   7.520   0.166   4.042
23226SOL    HW174525   7.503   0.249   3.988
23226SOL    HW274526   7.610   0.129   4.020
23227SOL     OW74527   8.631   1.335   3.843
23227SOL    HW174528   8.532   1.324   3.845
23227SOL    HW274529   8.665   1.350   3.936
23228SOL     OW74530   8.061   0.842   5.155
23228SOL    HW174531   8.117   0.923   5.138
23228SOL    HW274532   8.120   0.762   5.158
23229SOL     OW74533   8.941   1.767   4.683
23229SOL    HW174534   8.974   1.831   4.614
23229SOL    HW274535   9.007   1.761   4.758
23230SOL     OW74536   8.164   0.565   5.432
23230SOL    HW174537   8.183   0.630   5.506
23230SOL    HW274538   8.224   0.485   5.441
23231SOL     OW74539   8.898   1.220   5.357
23231SOL    HW174540   8.889   1.210   5.456
23231SOL    HW274541   8.994   1.213   5.331
23232SOL     OW74542   7.838   1.741   5.284
23232SOL    HW174543   7.747   1.782   5.282
23232SOL    HW274544   7.831   1.647   5.316
23233SOL     OW74545   9.122   0.883   4.978
23233SOL    HW174546   9.095   0.794   4.941
23233SOL    HW274547   9.123   0.951   4.905
23234SOL     OW74548   8.673   0.325   4.173
23234SOL    HW174549   8.738   0.251   4.162
23234SOL    HW274550   8.693   0.375   4.257
23235SOL     OW74551   8.042   0.745   4.376
23235SOL    HW174552   8.092   0.830   4.357
23235SOL    HW274553   7.954   0.747   4.328
23236SOL     OW74554   9.225   0.342   5.366
23236SOL    HW174555   9.208   0.373   5.272
23236SOL    HW274556   9.141   0.305   5.404
23237SOL     OW74557   9.178   0.934   5.241
23237SOL    HW174558   9.216   1.025   5.256
23237SOL    HW274559   9.170   0.917   5.142
23238SOL     OW74560   8.307   1.374   3.740
23238SOL    HW174561   8.261   1.389   3.828
23238SOL    HW274562   8.351   1.459   3.710
23239SOL     OW74563   8.109   1.790   4.677
23239SOL    HW174564   8.063   1.878   4.664
23239SOL    HW274565   8.208   1.802   4.670
23240SOL     OW74566   8.307   0.956   4.585
23240SOL    HW174567   8.361   0.887   4.633
23240SOL    HW274568   8.275   1.025   4.651
23241SOL     OW74569   8.531   0.984   3.811
23241SOL    HW174570   8.508   1.037   3.729
23241SOL    HW274571   8.612   0.928   3.792
23242SOL     OW74572   9.309   1.569   4.575
23242SOL    HW174573   9.238   1.557   4.505
23242SOL    HW274574   9.310   1.490   4.635
23243SOL     OW74575   7.527   1.240   4.377
23243SOL    HW174576   7.526   1.193   4.465
23243SOL    HW274577   7.609   1.212   4.326
23244SOL     OW74578   8.120   1.391   5.348
23244SOL    HW174579   8.042   1.341   5.386
23244SOL    HW274580   8.117   1.486   5.379
23245SOL     OW74581   9.272   0.192   4.951
23245SOL    HW174582   9.268   0.102   4.995
23245SOL    HW274583   9.275   0.181   4.852
23246SOL     OW74584   7.876   0.424   4.244
23246SOL    HW174585   7.906   0.352   4.182
23246SOL    HW274586   7.837   0.384   4.327
23247SOL     OW74587   9.153   1.487   4.828
23247SOL    HW174588   9.060   1.462   4.801
23247SOL    HW274589   9.179   1.437   4.910
23248SOL     OW74590   7.765   0.547   5.004
23248SOL    HW174591   7.803   0.488   5.076
23248SOL    HW274592   7.805   0.521   4.916
23249SOL     OW74593   8.260   1.586   4.411
23249SOL    HW174594   8.292   1.596   4.317
23249SOL    HW274595   8.181   1.524   4.413
23250SOL     OW74596   8.872   0.214   4.836
23250SOL    HW174597   8.924   0.149   4.891
23250SOL    HW274598   8.823   0.277   4.897
23251SOL     OW74599   8.449   0.034   4.878
23251SOL    HW174600   8.386  -0.038   4.847
23251SOL    HW274601   8.542  -0.002   4.878
23252SOL     OW74602   8.218   1.330   4.025
23252SOL    HW174603   8.172   1.243   4.042
23252SOL    HW274604   8.309   1.327   4.066
23253SOL     OW74605   8.066   1.567   5.008
23253SOL    HW174606   8.061   1.649   5.065
23253SOL    HW274607   8.155   1.564   4.963
23254SOL     OW74608   8.800   0.052   3.892
23254SOL    HW174609   8.835   0.011   3.808
23254SOL    HW274610   8.710   0.014   3.912
23255SOL     OW74611   8.748   0.453   4.415
23255SOL    HW174612   8.689   0.533   4.419
23255SOL    HW274613   8.763   0.418   4.508
23256SOL     OW74614   9.041   0.221   4.606
23256SOL    HW174615   8.957   0.220   4.660
23256SOL    HW274616   9.043   0.304   4.550
23257SOL     OW74617   7.487   1.077   4.024
23257SOL    HW174618   7.586   1.066   4.015
23257SOL    HW274619   7.447   0.991   4.056
23258SOL     OW74620   8.323   1.646   4.061
23258SOL    HW174621   8.246   1.611   4.007
23258SOL    HW274622   8.291   1.717   4.123
23259SOL     OW74623   7.678   0.628   5.699
23259SOL    HW174624   7.585   0.626   5.736
23259SOL    HW274625   7.679   0.589   5.607
23260SOL     OW74626   7.673   0.275   6.582
23260SOL    HW174627   7.708   0.258   6.674
23260SOL    HW274628   7.585   0.230   6.570
23261SOL     OW74629   7.467   0.368   6.233
23261SOL    HW174630   7.385   0.411   6.272
23261SOL    HW274631   7.439   0.295   6.170
23262SOL     OW74632   8.017   1.275   6.751
23262SOL    HW174633   7.924   1.268   6.714
23262SOL    HW274634   8.028   1.364   6.795
23263SOL     OW74635   9.003   1.511   6.289
23263SOL    HW174636   8.946   1.495   6.370
23263SOL    HW274637   8.944   1.521   6.209
23264SOL     OW74638   8.583   0.703   6.303
23264SOL    HW174639   8.640   0.781   6.278
23264SOL    HW274640   8.523   0.729   6.379
23265SOL     OW74641   9.203   0.607   5.817
23265SOL    HW174642   9.191   0.594   5.718
23265SOL    HW274643   9.173   0.526   5.866
23266SOL     OW74644   8.216   1.144   6.609
23266SOL    HW174645   8.138   1.161   6.669
23266SOL    HW274646   8.250   1.231   6.573
23267SOL     OW74647   8.298   0.798   7.409
23267SOL    HW174648   8.294   0.874   7.474
23267SOL    HW274649   8.320   0.834   7.318
23268SOL     OW74650   8.133   1.012   6.251
23268SOL    HW174651   8.202   0.996   6.321
23268SOL    HW274652   8.060   1.069   6.289
23269SOL     OW74653   8.134   1.161   7.389
23269SOL    HW174654   8.194   1.240   7.403
23269SOL    HW274655   8.048   1.192   7.348
23270SOL     OW74656   7.783   1.435   6.647
23270SOL    HW174657   7.705   1.404   6.594
23270SOL    HW274658   7.841   1.493   6.590
23271SOL     OW74659   8.908   1.505   6.925
23271SOL    HW174660   8.932   1.599   6.951
23271SOL    HW274661   8.892   1.451   7.007
23272SOL     OW74662   7.886   0.392   7.085
23272SOL    HW174663   7.968   0.336   7.094
23272SOL    HW274664   7.805   0.334   7.089
23273SOL     OW74665   9.051   0.447   6.323
23273SOL    HW174666   8.977   0.493   6.273
23273SOL    HW274667   9.102   0.515   6.376
23274SOL     OW74668   7.688   1.091   6.472
23274SOL    HW174669   7.702   1.007   6.524
23274SOL    HW274670   7.633   1.155   6.527
23275SOL     OW74671   8.068   1.786   7.025
23275SOL    HW174672   7.976   1.769   7.060
23275SOL    HW274673   8.096   1.878   7.051
23276SOL     OW74674   8.054   0.964   5.709
23276SOL    HW174675   8.061   1.048   5.655
23276SOL    HW274676   8.100   0.977   5.797
23277SOL     OW74677   9.042   0.114   7.066
23277SOL    HW174678   9.024   0.181   6.994
23277SOL    HW274679   9.039   0.160   7.155
23278SOL     OW74680   7.570   0.643   6.149
23278SOL    HW174681   7.525   0.555   6.166
23278SOL    HW274682   7.569   0.697   6.233
23279SOL     OW74683   9.290   1.767   5.945
23279SOL    HW174684   9.344   1.738   6.025
23279SOL    HW274685   9.320   1.857   5.916
23280SOL     OW74686   7.475   1.596   5.703
23280SOL    HW174687   7.456   1.500   5.724
23280SOL    HW274688   7.442   1.654   5.778
23281SOL     OW74689   9.137   0.922   6.198
23281SOL    HW174690   9.232   0.893   6.206
23281SOL    HW274691   9.129   0.987   6.123
23282SOL     OW74692   9.089   1.108   6.018
23282SOL    HW174693   9.175   1.110   5.966
23282SOL    HW274694   9.103   1.155   6.106
23283SOL     OW74695   8.061   1.365   6.312
23283SOL    HW174696   8.012   1.278   6.321
23283SOL    HW274697   8.038   1.408   6.225
23284SOL     OW74698   8.741   1.228   7.009
23284SOL    HW174699   8.778   1.155   6.951
23284SOL    HW274700   8.793   1.233   7.094
23285SOL     OW74701   8.257   0.004   6.088
23285SOL    HW174702   8.297   0.095   6.079
23285SOL    HW274703   8.157   0.012   6.094
23286SOL     OW74704   8.973   0.999   5.776
23286SOL    HW174705   8.910   0.923   5.789
23286SOL    HW274706   9.021   1.017   5.862
23287SOL     OW74707   7.765   0.251   7.387
23287SOL    HW174708   7.836   0.322   7.393
23287SOL    HW274709   7.677   0.290   7.415
23288SOL     OW74710   8.914   1.417   6.539
23288SOL    HW174711   8.855   1.423   6.619
23288SOL    HW274712   8.899   1.329   6.493
23289SOL     OW74713   9.115   1.714   6.158
23289SOL    HW174714   9.074   1.691   6.070
23289SOL    HW274715   9.097   1.640   6.223
23290SOL     OW74716   8.046   0.729   5.856
23290SOL    HW174717   8.070   0.798   5.788
23290SOL    HW274718   7.968   0.762   5.910
23291SOL     OW74719   8.729   0.345   6.530
23291SOL    HW174720   8.643   0.295   6.517
23291SOL    HW274721   8.791   0.291   6.586
23292SOL     OW74722   9.024   1.662   5.893
23292SOL    HW174723   9.113   1.708   5.896
23292SOL    HW274724   9.003   1.638   5.798
23293SOL     OW74725   8.255   0.605   7.051
23293SOL    HW174726   8.208   0.602   7.140
23293SOL    HW274727   8.204   0.550   6.985
23294SOL     OW74728   8.842   0.469   7.260
23294SOL    HW174729   8.822   0.512   7.348
23294SOL    HW274730   8.920   0.407   7.269
23295SOL     OW74731   8.421   0.890   7.158
23295SOL    HW174732   8.467   0.806   7.129
23295SOL    HW274733   8.365   0.924   7.083
23296SOL     OW74734   8.439   0.410   6.828
23296SOL    HW174735   8.362   0.444   6.882
23296SOL    HW274736   8.405   0.359   6.749
23297SOL     OW74737   8.489   0.701   6.015
23297SOL    HW174738   8.515   0.697   6.111
23297SOL    HW274739   8.404   0.650   6.001
23298SOL     OW74740   7.524   0.811   6.375
23298SOL    HW174741   7.623   0.799   6.384
23298SOL    HW274742   7.500   0.906   6.396
23299SOL     OW74743   7.578   1.821   7.157
23299SOL    HW174744   7.568   1.806   7.256
23299SOL    HW274745   7.492   1.857   7.121
23300SOL     OW74746   8.313   0.348   5.781
23300SOL    HW174747   8.372   0.411   5.732
23300SOL    HW274748   8.332   0.254   5.752
23301SOL     OW74749   9.167   0.585   7.417
23301SOL    HW174750   9.141   0.674   7.381
23301SOL    HW274751   9.165   0.517   7.344
23302SOL     OW74752   7.998   0.196   6.471
23302SOL    HW174753   7.993   0.191   6.571
23302SOL    HW274754   8.000   0.292   6.442
23303SOL     OW74755   7.799   1.801   6.439
23303SOL    HW174756   7.849   1.715   6.445
23303SOL    HW274757   7.864   1.878   6.436
23304SOL     OW74758   9.243   1.066   6.459
23304SOL    HW174759   9.181   1.051   6.383
23304SOL    HW274760   9.191   1.077   6.544
23305SOL     OW74761   7.769   0.943   5.828
23305SOL    HW174762   7.851   0.982   5.786
23305SOL    HW274763   7.742   0.861   5.779
23306SOL     OW74764   8.906   0.735   6.314
23306SOL    HW174765   8.901   0.670   6.389
23306SOL    HW274766   8.986   0.794   6.327
23307SOL     OW74767   7.909   1.266   7.313
23307SOL    HW174768   7.859   1.267   7.227
23307SOL    HW274769   7.846   1.248   7.389
23308SOL     OW74770   8.559   1.776   5.823
23308SOL    HW174771   8.499   1.714   5.873
23308SOL    HW274772   8.590   1.732   5.738
23309SOL     OW74773   7.650   0.285   7.084
23309SOL    HW174774   7.570   0.345   7.071
23309SOL    HW274775   7.640   0.236   7.170
23310SOL     OW74776   9.080   1.377   5.667
23310SOL    HW174777   9.048   1.471   5.657
23310SOL    HW274778   9.004   1.314   5.655
23311SOL     OW74779   8.848   0.107   6.012
23311SOL    HW174780   8.824   0.070   5.922
23311SOL    HW274781   8.947   0.123   6.016
23312SOL     OW74782   7.697   1.785   6.827
23312SOL    HW174783   7.754   1.720   6.877
23312SOL    HW274784   7.681   1.752   6.734
23313SOL     OW74785   8.388   1.698   6.490
23313SOL    HW174786   8.468   1.641   6.511
23313SOL    HW274787   8.339   1.658   6.413
23314SOL     OW74788   8.995   0.222   7.315
23314SOL    HW174789   8.990   0.259   7.407
23314SOL    HW274790   8.923   0.153   7.303
23315SOL     OW74791   8.062   0.122   5.703
23315SOL    HW174792   8.160   0.100   5.710
23315SOL    HW274793   8.031   0.105   5.610
23316SOL     OW74794   8.229   0.264   7.335
23316SOL    HW174795   8.296   0.203   7.378
23316SOL    HW274796   8.156   0.283   7.400
23317SOL     OW74797   8.336   1.514   6.781
23317SOL    HW174798   8.313   1.489   6.687
23317SOL    HW274799   8.397   1.445   6.820
23318SOL     OW74800   8.799   0.590   7.019
23318SOL    HW174801   8.827   0.547   7.104
23318SOL    HW274802   8.824   0.686   7.020
23319SOL     OW74803   8.251   1.402   6.510
23319SOL    HW174804   8.341   1.416   6.468
23319SOL    HW274805   8.180   1.404   6.439
23320SOL     OW74806   8.370   0.503   6.485
23320SOL    HW174807   8.345   0.494   6.389
23320SOL    HW274808   8.418   0.421   6.516
23321SOL     OW74809   7.987   0.064   6.098
23321SOL    HW174810   7.906   0.065   6.156
23321SOL    HW274811   7.990   0.147   6.043
23322SOL     OW74812   8.882   1.188   5.627
23322SOL    HW174813   8.914   1.112   5.684
23322SOL    HW274814   8.790   1.215   5.657
23323SOL     OW74815   7.745   0.035   5.757
23323SOL    HW174816   7.794   0.119   5.736
23323SOL    HW274817   7.807  -0.030   5.802
23324SOL     OW74818   8.383   0.236   6.066
23324SOL    HW174819   8.335   0.277   5.988
23324SOL    HW274820   8.482   0.234   6.047
23325SOL     OW74821   8.524   0.683   7.050
23325SOL    HW174822   8.444   0.622   7.053
23325SOL    HW274823   8.605   0.630   7.026
23326SOL     OW74824   8.675   1.570   6.379
23326SOL    HW174825   8.696   1.644   6.314
23326SOL    HW274826   8.743   1.570   6.452
23327SOL     OW74827   7.907   1.152   6.327
23327SOL    HW174828   7.836   1.125   6.392
23327SOL    HW274829   7.881   1.124   6.234
23328SOL     OW74830   8.480   0.549   5.602
23328SOL    HW174831   8.439   0.631   5.563
23328SOL    HW274832   8.544   0.575   5.675
23329SOL     OW74833   8.009   0.222   6.733
23329SOL    HW174834   8.047   0.138   6.770
23329SOL    HW274835   7.921   0.241   6.777
23330SOL     OW74836   8.465   0.039   6.339
23330SOL    HW174837   8.393   0.044   6.270
23330SOL    HW274838   8.441  -0.030   6.408
23331SOL     OW74839   8.877   1.173   6.453
23331SOL    HW174840   8.822   1.089   6.446
23331SOL    HW274841   8.903   1.202   6.361
23332SOL     OW74842   8.914   0.590   6.578
23332SOL    HW174843   8.884   0.495   6.585
23332SOL    HW274844   8.987   0.606   6.644
23333SOL     OW74845   9.305   0.833   5.963
23333SOL    HW174846   9.347   0.769   6.027
23333SOL    HW274847   9.267   0.782   5.885
23334SOL     OW74848   9.112   1.280   6.243
23334SOL    HW174849   9.211   1.288   6.257
23334SOL    HW274850   9.067   1.364   6.274
23335SOL     OW74851   8.838   0.575   5.664
23335SOL    HW174852   8.784   0.554   5.745
23335SOL    HW274853   8.929   0.534   5.673
23336SOL     OW74854   7.975   0.256   5.914
23336SOL    HW174855   8.002   0.197   5.839
23336SOL    HW274856   7.975   0.351   5.883
23337SOL     OW74857   9.202   1.223   7.174
23337SOL    HW174858   9.293   1.184   7.161
23337SOL    HW274859   9.210   1.319   7.198
23338SOL     OW74860   8.512   1.347   6.926
23338SOL    HW174861   8.432   1.324   6.981
23338SOL    HW274862   8.595   1.321   6.975
23339SOL     OW74863   9.040   1.629   7.211
23339SOL    HW174864   9.067   1.663   7.121
23339SOL    HW274865   9.119   1.591   7.257
23340SOL     OW74866   8.559   1.195   6.686
23340SOL    HW174867   8.519   1.239   6.767
23340SOL    HW274868   8.518   1.232   6.603
23341SOL     OW74869   9.086   1.099   6.665
23341SOL    HW174870   9.091   1.180   6.724
23341SOL    HW274871   9.000   1.101   6.614
23342SOL     OW74872   8.363   0.089   6.988
23342SOL    HW174873   8.388   0.069   6.893
23342SOL    HW274874   8.435   0.145   7.030
23343SOL     OW74875   8.428   1.116   7.305
23343SOL    HW174876   8.329   1.122   7.315
23343SOL    HW274877   8.451   1.036   7.249
23344SOL     OW74878   8.153   1.050   5.954
23344SOL    HW174879   8.139   1.057   6.053
23344SOL    HW274880   8.237   0.999   5.936
23345SOL     OW74881   8.722   0.386   6.848
23345SOL    HW174882   8.743   0.460   6.912
23345SOL    HW274883   8.633   0.403   6.805
23346SOL     OW74884   7.512   1.564   6.917
23346SOL    HW174885   7.466   1.646   6.883
23346SOL    HW274886   7.610   1.583   6.926
23347SOL     OW74887   7.815   1.100   6.087
23347SOL    HW174888   7.808   1.183   6.031
23347SOL    HW274889   7.819   1.020   6.027
23348SOL     OW74890   8.014   0.537   6.451
23348SOL    HW174891   8.026   0.603   6.377
23348SOL    HW274892   8.060   0.571   6.534
23349SOL     OW74893   8.720   1.445   6.728
23349SOL    HW174894   8.767   1.458   6.815
23349SOL    HW274895   8.654   1.371   6.737
23350SOL     OW74896   9.030   0.639   6.058
23350SOL    HW174897   8.999   0.700   6.131
23350SOL    HW274898   9.080   0.691   5.989
23351SOL     OW74899   7.802   1.510   6.915
23351SOL    HW174900   7.781   1.466   6.828
23351SOL    HW274901   7.899   1.536   6.918
23352SOL     OW74902   7.850   0.751   7.184
23352SOL    HW174903   7.918   0.806   7.137
23352SOL    HW274904   7.890   0.663   7.211
23353SOL     OW74905   9.035   0.779   7.256
23353SOL    HW174906   8.943   0.817   7.251
23353SOL    HW274907   9.095   0.826   7.191
23354SOL     OW74908   8.461   0.105   7.356
23354SOL    HW174909   8.467   0.190   7.304
23354SOL    HW274910   8.493   0.029   7.299
23355SOL     OW74911   7.952   0.050   7.326
23355SOL    HW174912   7.910  -0.007   7.256
23355SOL    HW274913   7.886   0.119   7.358
23356SOL     OW74914   8.021   0.870   6.615
23356SOL    HW174915   8.065   0.959   6.606
23356SOL    HW274916   7.958   0.870   6.692
23357SOL     OW74917   8.808   0.862   6.631
23357SOL    HW174918   8.733   0.862   6.565
23357SOL    HW274919   8.845   0.770   6.640
23358SOL     OW74920   8.657   0.525   5.861
23358SOL    HW174921   8.670   0.441   5.915
23358SOL    HW274922   8.628   0.599   5.921
23359SOL     OW74923   7.755   0.213   6.817
23359SOL    HW174924   7.732   0.250   6.907
23359SOL    HW274925   7.725   0.118   6.811
23360SOL     OW74926   7.485   1.310   6.868
23360SOL    HW174927   7.538   1.261   6.936
23360SOL    HW274928   7.507   1.408   6.873
23361SOL     OW74929   8.180   0.634   6.650
23361SOL    HW174930   8.239   0.608   6.574
23361SOL    HW274931   8.152   0.730   6.639
23362SOL     OW74932   9.176   0.935   7.440
23362SOL    HW174933   9.130   0.928   7.351
23362SOL    HW274934   9.114   0.979   7.506
23363SOL     OW74935   7.755   0.063   6.204
23363SOL    HW174936   7.744   0.157   6.237
23363SOL    HW274937   7.750   0.000   6.281
23364SOL     OW74938   9.070   0.367   5.960
23364SOL    HW174939   9.072   0.291   6.024
23364SOL    HW274940   9.022   0.444   6.000
23365SOL     OW74941   8.471   0.766   6.552
23365SOL    HW174942   8.486   0.787   6.648
23365SOL    HW274943   8.441   0.671   6.543
23366SOL     OW74944   9.307   1.518   7.191
23366SOL    HW174945   9.321   1.545   7.096
23366SOL    HW274946   9.390   1.540   7.244
23367SOL     OW74947   7.798   0.898   7.390
23367SOL    HW174948   7.874   0.942   7.438
23367SOL    HW274949   7.833   0.851   7.308
23368SOL     OW74950   8.988   0.274   5.711
23368SOL    HW174951   8.927   0.199   5.734
23368SOL    HW274952   9.010   0.326   5.794
23369SOL     OW74953   8.751   0.838   5.628
23369SOL    HW174954   8.785   0.745   5.643
23369SOL    HW274955   8.769   0.865   5.533
23370SOL     OW74956   8.516   1.333   6.435
23370SOL    HW174957   8.523   1.249   6.380
23370SOL    HW274958   8.578   1.402   6.399
23371SOL     OW74959   7.767   0.810   6.535
23371SOL    HW174960   7.860   0.846   6.540
23371SOL    HW274961   7.761   0.725   6.587
23372SOL     OW74962   7.787   0.509   6.592
23372SOL    HW174963   7.735   0.426   6.575
23372SOL    HW274964   7.864   0.514   6.528
23373SOL     OW74965   8.586   0.380   7.264
23373SOL    HW174966   8.541   0.443   7.328
23373SOL    HW274967   8.679   0.411   7.247
23374SOL     OW74968   8.608   0.207   7.063
23374SOL    HW174969   8.608   0.271   7.140
23374SOL    HW274970   8.636   0.255   6.980
23375SOL     OW74971   7.456   1.326   5.786
23375SOL    HW174972   7.363   1.347   5.755
23375SOL    HW274973   7.466   1.227   5.799
23376SOL     OW74974   7.952   1.568   6.496
23376SOL    HW174975   8.018   1.642   6.505
23376SOL    HW274976   7.996   1.489   6.454
23377SOL     OW74977   8.450   0.796   6.824
23377SOL    HW174978   8.491   0.764   6.910
23377SOL    HW274979   8.354   0.769   6.821
23378SOL     OW74980   7.637   0.520   7.308
23378SOL    HW174981   7.696   0.480   7.238
23378SOL    HW274982   7.579   0.591   7.267
23379SOL     OW74983   8.817   0.950   7.246
23379SOL    HW174984   8.856   1.039   7.266
23379SOL    HW274985   8.827   0.930   7.149
23380SOL     OW74986   7.700   1.564   7.330
23380SOL    HW174987   7.670   1.621   7.406
23380SOL    HW274988   7.693   1.467   7.356
23381SOL     OW74989   8.119   0.464   6.855
23381SOL    HW174990   8.085   0.375   6.825
23381SOL    HW274991   8.145   0.518   6.775
23382SOL     OW74992   7.921   0.500   5.777
23382SOL    HW174993   7.982   0.580   5.781
23382SOL    HW274994   7.826   0.531   5.784
23383SOL     OW74995   7.607   1.137   7.052
23383SOL    HW174996   7.629   1.076   7.128
23383SOL    HW274997   7.617   1.088   6.966
23384SOL     OW74998   8.795   1.059   6.820
23384SOL    HW174999   8.819   0.996   6.746
23384SOL    HW275000   8.705   1.099   6.802
23385SOL     OW75001   8.750   0.855   5.895
23385SOL    HW175002   8.664   0.824   5.937
23385SOL    HW275003   8.746   0.841   5.796
23386SOL     OW75004   9.207   1.747   6.740
23386SOL    HW175005   9.268   1.777   6.667
23386SOL    HW275006   9.169   1.658   6.718
23387SOL     OW75007   8.700   1.731   6.714
23387SOL    HW175008   8.784   1.736   6.660
23387SOL    HW275009   8.677   1.635   6.732
23388SOL     OW75010   7.531   1.258   6.608
23388SOL    HW175011   7.526   1.257   6.708
23388SOL    HW275012   7.448   1.217   6.570
23389SOL     OW75013   8.136   1.662   7.302
23389SOL    HW175014   8.080   1.743   7.311
23389SOL    HW275015   8.188   1.666   7.216
23390SOL     OW75016   9.174   0.135   6.109
23390SOL    HW175017   9.247   0.118   6.042
23390SOL    HW275018   9.143   0.048   6.147
23391SOL     OW75019   8.836   1.573   6.063
23391SOL    HW175020   8.903   1.585   5.989
23391SOL    HW275021   8.796   1.662   6.086
23392SOL     OW75022   7.578   1.794   7.437
23392SOL    HW175023   7.537   1.720   7.490
23392SOL    HW275024   7.642   1.845   7.495
23393SOL     OW75025   8.728   0.927   6.258
23393SOL    HW175026   8.788   0.846   6.260
23393SOL    HW275027   8.768   0.996   6.198
23394SOL     OW75028   8.278   1.273   7.008
23394SOL    HW175029   8.273   1.306   7.103
23394SOL    HW275030   8.192   1.292   6.962
23395SOL     OW75031   9.098   1.720   6.980
23395SOL    HW175032   9.151   1.730   6.896
23395SOL    HW275033   9.071   1.810   7.014
23396SOL     OW75034   9.289   0.175   6.549
23396SOL    HW175035   9.328   0.090   6.513
23396SOL    HW275036   9.191   0.177   6.530
23397SOL     OW75037   7.711   0.326   6.306
23397SOL    HW175038   7.632   0.377   6.272
23397SOL    HW275039   7.702   0.311   6.404
23398SOL     OW75040   8.642   1.612   5.617
23398SOL    HW175041   8.648   1.519   5.654
23398SOL    HW275042   8.583   1.612   5.537
23399SOL     OW75043   8.270   1.002   6.958
23399SOL    HW175044   8.310   1.001   6.866
23399SOL    HW275045   8.280   1.094   6.998
23400SOL     OW75046   8.364   0.910   5.877
23400SOL    HW175047   8.427   0.948   5.809
23400SOL    HW275048   8.404   0.827   5.916
23401SOL     OW75049   8.952   1.607   5.630
23401SOL    HW175050   8.860   1.644   5.637
23401SOL    HW275051   8.990   1.627   5.540
23402SOL     OW75052   7.820   1.288   7.076
23402SOL    HW175053   7.807   1.381   7.042
23402SOL    HW275054   7.736   1.236   7.063
23403SOL     OW75055   9.062   1.292   6.875
23403SOL    HW175056   9.122   1.295   6.955
23403SOL    HW275057   8.987   1.356   6.888
23404SOL     OW75058   8.462   0.236   6.557
23404SOL    HW175059   8.454   0.200   6.464
23404SOL    HW275060   8.460   0.160   6.622
23405SOL     OW75061   8.038   1.487   6.077
23405SOL    HW175062   8.080   1.429   6.007
23405SOL    HW275063   7.994   1.566   6.033
23406SOL     OW75064   9.157   0.385   6.967
23406SOL    HW175065   9.230   0.454   6.971
23406SOL    HW275066   9.185   0.310   6.908
23407SOL     OW75067   7.553   1.013   7.312
23407SOL    HW175068   7.476   0.980   7.366
23407SOL    HW275069   7.638   0.983   7.354
23408SOL     OW75070   8.120   0.203   7.075
23408SOL    HW175071   8.210   0.187   7.035
23408SOL    HW275072   8.128   0.208   7.174
23409SOL     OW75073   7.523   0.345   5.619
23409SOL    HW175074   7.431   0.317   5.590
23409SOL    HW275075   7.554   0.422   5.563
23410SOL     OW75076   8.888   0.856   6.984
23410SOL    HW175077   8.831   0.908   6.921
23410SOL    HW275078   8.984   0.868   6.960
23411SOL     OW75079   7.520   0.166   5.904
23411SOL    HW175080   7.503   0.249   5.850
23411SOL    HW275081   7.610   0.129   5.882
23412SOL     OW75082   8.631   1.335   5.705
23412SOL    HW175083   8.532   1.324   5.707
23412SOL    HW275084   8.665   1.350   5.798
23413SOL     OW75085   8.061   0.842   7.017
23413SOL    HW175086   8.117   0.923   7.000
23413SOL    HW275087   8.120   0.762   7.020
23414SOL     OW75088   8.941   1.767   6.545
23414SOL    HW175089   8.974   1.831   6.476
23414SOL    HW275090   9.007   1.761   6.620
23415SOL     OW75091   8.164   0.565   7.294
23415SOL    HW175092   8.183   0.630   7.368
23415SOL    HW275093   8.224   0.485   7.303
23416SOL     OW75094   7.838   1.741   7.146
23416SOL    HW175095   7.747   1.782   7.144
23416SOL    HW275096   7.831   1.647   7.178
23417SOL     OW75097   9.122   0.883   6.840
23417SOL    HW175098   9.095   0.794   6.803
23417SOL    HW275099   9.123   0.951   6.767
23418SOL     OW75100   8.673   0.325   6.035
23418SOL    HW175101   8.738   0.251   6.024
23418SOL    HW275102   8.693   0.375   6.119
23419SOL     OW75103   9.225   0.342   7.228
23419SOL    HW175104   9.208   0.373   7.134
23419SOL    HW275105   9.141   0.305   7.266
23420SOL     OW75106   9.178   0.934   7.103
23420SOL    HW175107   9.216   1.025   7.118
23420SOL    HW275108   9.170   0.917   7.004
23421SOL     OW75109   8.307   1.374   5.602
23421SOL    HW175110   8.261   1.389   5.690
23421SOL    HW275111   8.351   1.459   5.572
23422SOL     OW75112   8.109   1.790   6.539
23422SOL    HW175113   8.063   1.878   6.526
23422SOL    HW275114   8.208   1.802   6.532
23423SOL     OW75115   8.307   0.956   6.447
23423SOL    HW175116   8.361   0.887   6.495
23423SOL    HW275117   8.275   1.025   6.513
23424SOL     OW75118   8.531   0.984   5.673
23424SOL    HW175119   8.508   1.037   5.591
23424SOL    HW275120   8.612   0.928   5.654
23425SOL     OW75121   9.309   1.569   6.437
23425SOL    HW175122   9.238   1.557   6.367
23425SOL    HW275123   9.310   1.490   6.497
23426SOL     OW75124   7.669   1.314   7.430
23426SOL    HW175125   7.604   1.241   7.409
23426SOL    HW275126   7.673   1.328   7.528
23427SOL     OW75127   7.527   1.240   6.239
23427SOL    HW175128   7.526   1.193   6.327
23427SOL    HW275129   7.609   1.212   6.188
23428SOL     OW75130   8.120   1.391   7.210
23428SOL    HW175131   8.042   1.341   7.248
23428SOL    HW275132   8.117   1.486   7.241
23429SOL     OW75133   9.272   0.192   6.813
23429SOL    HW175134   9.268   0.102   6.857
23429SOL    HW275135   9.275   0.181   6.714
23430SOL     OW75136   7.876   0.424   6.106
23430SOL    HW175137   7.906   0.352   6.044
23430SOL    HW275138   7.837   0.384   6.189
23431SOL     OW75139   9.153   1.487   6.690
23431SOL    HW175140   9.060   1.462   6.663
23431SOL    HW275141   9.179   1.437   6.772
23432SOL     OW75142   8.260   1.586   6.273
23432SOL    HW175143   8.292   1.596   6.179
23432SOL    HW275144   8.181   1.524   6.275
23433SOL     OW75145   8.872   0.214   6.698
23433SOL    HW175146   8.924   0.149   6.753
23433SOL    HW275147   8.823   0.277   6.759
23434SOL     OW75148   8.449   0.034   6.740
23434SOL    HW175149   8.386  -0.038   6.709
23434SOL    HW275150   8.542  -0.002   6.740
23435SOL     OW75151   8.218   1.330   5.887
23435SOL    HW175152   8.172   1.243   5.904
23435SOL    HW275153   8.309   1.327   5.928
23436SOL     OW75154   8.066   1.567   6.870
23436SOL    HW175155   8.061   1.649   6.927
23436SOL    HW275156   8.155   1.564   6.825
23437SOL     OW75157   8.800   0.052   5.754
23437SOL    HW175158   8.835   0.011   5.670
23437SOL    HW275159   8.710   0.014   5.774
23438SOL     OW75160   8.748   0.453   6.277
23438SOL    HW175161   8.689   0.533   6.281
23438SOL    HW275162   8.763   0.418   6.370
23439SOL     OW75163   9.041   0.221   6.468
23439SOL    HW175164   8.957   0.220   6.522
23439SOL    HW275165   9.043   0.304   6.412
23440SOL     OW75166   7.487   1.077   5.886
23440SOL    HW175167   7.586   1.066   5.877
23440SOL    HW275168   7.447   0.991   5.918
23441SOL     OW75169   8.323   1.646   5.923
23441SOL    HW175170   8.246   1.611   5.869
23441SOL    HW275171   8.291   1.717   5.985
23442SOL     OW75172   7.678   0.628   7.561
23442SOL    HW175173   7.585   0.626   7.598
23442SOL    HW275174   7.679   0.589   7.469
23443SOL     OW75175   7.673   0.275   8.444
23443SOL    HW175176   7.708   0.258   8.536
23443SOL    HW275177   7.585   0.230   8.432
23444SOL     OW75178   8.017   1.275   8.613
23444SOL    HW175179   7.924   1.268   8.576
23444SOL    HW275180   8.028   1.364   8.657
23445SOL     OW75181   9.003   1.511   8.151
23445SOL    HW175182   8.946   1.495   8.232
23445SOL    HW275183   8.944   1.521   8.071
23446SOL     OW75184   8.583   0.703   8.165
23446SOL    HW175185   8.640   0.781   8.140
23446SOL    HW275186   8.523   0.729   8.241
23447SOL     OW75187   9.203   0.607   7.679
23447SOL    HW175188   9.191   0.594   7.580
23447SOL    HW275189   9.173   0.526   7.728
23448SOL     OW75190   8.216   1.144   8.471
23448SOL    HW175191   8.138   1.161   8.531
23448SOL    HW275192   8.250   1.231   8.435
23449SOL     OW75193   8.298   0.798   9.271
23449SOL    HW175194   8.294   0.874   9.336
23449SOL    HW275195   8.320   0.834   9.180
23450SOL     OW75196   8.133   1.012   8.113
23450SOL    HW175197   8.202   0.996   8.183
23450SOL    HW275198   8.060   1.069   8.151
23451SOL     OW75199   8.134   1.161   9.251
23451SOL    HW175200   8.194   1.240   9.265
23451SOL    HW275201   8.048   1.192   9.210
23452SOL     OW75202   7.783   1.435   8.509
23452SOL    HW175203   7.705   1.404   8.456
23452SOL    HW275204   7.841   1.493   8.452
23453SOL     OW75205   8.908   1.505   8.787
23453SOL    HW175206   8.932   1.599   8.813
23453SOL    HW275207   8.892   1.451   8.869
23454SOL     OW75208   7.886   0.392   8.947
23454SOL    HW175209   7.968   0.336   8.956
23454SOL    HW275210   7.805   0.334   8.951
23455SOL     OW75211   9.051   0.447   8.185
23455SOL    HW175212   8.977   0.493   8.135
23455SOL    HW275213   9.102   0.515   8.238
23456SOL     OW75214   7.679   1.713   7.931
23456SOL    HW175215   7.713   1.790   7.985
23456SOL    HW275216   7.723   1.713   7.841
23457SOL     OW75217   8.575   1.341   9.138
23457SOL    HW175218   8.622   1.341   9.226
23457SOL    HW275219   8.527   1.254   9.127
23458SOL     OW75220   7.678   1.434   7.986
23458SOL    HW175221   7.652   1.530   7.986
23458SOL    HW275222   7.607   1.380   8.031
23459SOL     OW75223   7.688   1.091   8.334
23459SOL    HW175224   7.702   1.007   8.386
23459SOL    HW275225   7.633   1.155   8.389
23460SOL     OW75226   8.068   1.786   8.887
23460SOL    HW175227   7.976   1.769   8.922
23460SOL    HW275228   8.096   1.878   8.913
23461SOL     OW75229   8.054   0.964   7.571
23461SOL    HW175230   8.061   1.048   7.517
23461SOL    HW275231   8.100   0.977   7.659
23462SOL     OW75232   9.042   0.114   8.928
23462SOL    HW175233   9.024   0.181   8.856
23462SOL    HW275234   9.039   0.160   9.017
23463SOL     OW75235   7.570   0.643   8.011
23463SOL    HW175236   7.525   0.555   8.028
23463SOL    HW275237   7.569   0.697   8.095
23464SOL     OW75238   9.290   1.767   7.807
23464SOL    HW175239   9.344   1.738   7.887
23464SOL    HW275240   9.320   1.857   7.778
23465SOL     OW75241   7.475   1.596   7.565
23465SOL    HW175242   7.456   1.500   7.586
23465SOL    HW275243   7.442   1.654   7.640
23466SOL     OW75244   9.137   0.922   8.060
23466SOL    HW175245   9.232   0.893   8.068
23466SOL    HW275246   9.129   0.987   7.985
23467SOL     OW75247   9.089   1.108   7.880
23467SOL    HW175248   9.175   1.110   7.828
23467SOL    HW275249   9.103   1.155   7.968
23468SOL     OW75250   7.561   0.737   9.045
23468SOL    HW175251   7.649   0.724   9.090
23468SOL    HW275252   7.548   0.834   9.023
23469SOL     OW75253   8.061   1.365   8.174
23469SOL    HW175254   8.012   1.278   8.183
23469SOL    HW275255   8.038   1.408   8.087
23470SOL     OW75256   8.741   1.228   8.871
23470SOL    HW175257   8.778   1.155   8.813
23470SOL    HW275258   8.793   1.233   8.956
23471SOL     OW75259   8.257   0.004   7.950
23471SOL    HW175260   8.297   0.095   7.941
23471SOL    HW275261   8.157   0.012   7.956
23472SOL     OW75262   7.645   0.976   8.712
23472SOL    HW175263   7.734   0.931   8.698
23472SOL    HW275264   7.572   0.911   8.693
23473SOL     OW75265   8.973   0.999   7.638
23473SOL    HW175266   8.910   0.923   7.651
23473SOL    HW275267   9.021   1.017   7.724
23474SOL     OW75268   8.635   1.792   9.064
23474SOL    HW175269   8.659   1.852   8.988
23474SOL    HW275270   8.642   1.697   9.034
23475SOL     OW75271   7.765   0.251   9.249
23475SOL    HW175272   7.836   0.322   9.255
23475SOL    HW275273   7.677   0.290   9.277
23476SOL     OW75274   8.914   1.417   8.401
23476SOL    HW175275   8.855   1.423   8.481
23476SOL    HW275276   8.899   1.329   8.355
23477SOL     OW75277   9.115   1.714   8.020
23477SOL    HW175278   9.074   1.691   7.932
23477SOL    HW275279   9.097   1.640   8.085
23478SOL     OW75280   8.046   0.729   7.718
23478SOL    HW175281   8.070   0.798   7.650
23478SOL    HW275282   7.968   0.762   7.772
23479SOL     OW75283   8.729   0.345   8.392
23479SOL    HW175284   8.643   0.295   8.379
23479SOL    HW275285   8.791   0.291   8.448
23480SOL     OW75286   9.024   1.662   7.755
23480SOL    HW175287   9.113   1.708   7.758
23480SOL    HW275288   9.003   1.638   7.660
23481SOL     OW75289   8.255   0.605   8.913
23481SOL    HW175290   8.208   0.602   9.002
23481SOL    HW275291   8.204   0.550   8.847
23482SOL     OW75292   8.842   0.469   9.122
23482SOL    HW175293   8.822   0.512   9.210
23482SOL    HW275294   8.920   0.407   9.131
23483SOL     OW75295   8.421   0.890   9.020
23483SOL    HW175296   8.467   0.806   8.991
23483SOL    HW275297   8.365   0.924   8.945
23484SOL     OW75298   8.439   0.410   8.690
23484SOL    HW175299   8.362   0.444   8.744
23484SOL    HW275300   8.405   0.359   8.611
23485SOL     OW75301   8.489   0.701   7.877
23485SOL    HW175302   8.515   0.697   7.973
23485SOL    HW275303   8.404   0.650   7.863
23486SOL     OW75304   7.578   1.821   9.019
23486SOL    HW175305   7.568   1.806   9.118
23486SOL    HW275306   7.492   1.857   8.983
23487SOL     OW75307   8.313   0.348   7.643
23487SOL    HW175308   8.372   0.411   7.594
23487SOL    HW275309   8.332   0.254   7.614
23488SOL     OW75310   9.167   0.585   9.279
23488SOL    HW175311   9.141   0.674   9.243
23488SOL    HW275312   9.165   0.517   9.206
23489SOL     OW75313   8.810   1.144   7.993
23489SOL    HW175314   8.893   1.115   7.945
23489SOL    HW275315   8.761   1.211   7.937
23490SOL     OW75316   7.998   0.196   8.333
23490SOL    HW175317   7.993   0.191   8.433
23490SOL    HW275318   8.000   0.292   8.304
23491SOL     OW75319   8.456   1.456   7.925
23491SOL    HW175320   8.410   1.528   7.873
23491SOL    HW275321   8.452   1.476   8.023
23492SOL     OW75322   7.799   1.801   8.301
23492SOL    HW175323   7.849   1.715   8.307
23492SOL    HW275324   7.864   1.878   8.298
23493SOL     OW75325   9.243   1.066   8.321
23493SOL    HW175326   9.181   1.051   8.245
23493SOL    HW275327   9.191   1.077   8.406
23494SOL     OW75328   8.675   1.550   8.954
23494SOL    HW175329   8.681   1.473   9.018
23494SOL    HW275330   8.623   1.524   8.874
23495SOL     OW75331   7.769   0.943   7.690
23495SOL    HW175332   7.851   0.982   7.648
23495SOL    HW275333   7.742   0.861   7.641
23496SOL     OW75334   8.906   0.735   8.176
23496SOL    HW175335   8.901   0.670   8.251
23496SOL    HW275336   8.986   0.794   8.189
23497SOL     OW75337   7.909   1.266   9.175
23497SOL    HW175338   7.859   1.267   9.089
23497SOL    HW275339   7.846   1.248   9.251
23498SOL     OW75340   8.559   1.776   7.685
23498SOL    HW175341   8.499   1.714   7.735
23498SOL    HW275342   8.590   1.732   7.600
23499SOL     OW75343   7.650   0.285   8.946
23499SOL    HW175344   7.570   0.345   8.933
23499SOL    HW275345   7.640   0.236   9.032
23500SOL     OW75346   9.080   1.377   7.529
23500SOL    HW175347   9.048   1.471   7.519
23500SOL    HW275348   9.004   1.314   7.517
23501SOL     OW75349   7.912   1.743   7.771
23501SOL    HW175350   7.945   1.782   7.857
23501SOL    HW275351   7.988   1.736   7.706
23502SOL     OW75352   8.848   0.107   7.874
23502SOL    HW175353   8.824   0.070   7.784
23502SOL    HW275354   8.947   0.123   7.878
23503SOL     OW75355   7.697   1.785   8.689
23503SOL    HW175356   7.754   1.720   8.739
23503SOL    HW275357   7.681   1.752   8.596
23504SOL     OW75358   8.388   1.698   8.352
23504SOL    HW175359   8.468   1.641   8.373
23504SOL    HW275360   8.339   1.658   8.275
23505SOL     OW75361   7.830   0.700   7.928
23505SOL    HW175362   7.875   0.610   7.925
23505SOL    HW275363   7.736   0.689   7.961
23506SOL     OW75364   8.995   0.222   9.177
23506SOL    HW175365   8.990   0.259   9.269
23506SOL    HW275366   8.923   0.153   9.165
23507SOL     OW75367   8.062   0.122   7.565
23507SOL    HW175368   8.160   0.100   7.572
23507SOL    HW275369   8.031   0.105   7.472
23508SOL     OW75370   8.229   0.264   9.197
23508SOL    HW175371   8.296   0.203   9.240
23508SOL    HW275372   8.156   0.283   9.262
23509SOL     OW75373   8.336   1.514   8.643
23509SOL    HW175374   8.313   1.489   8.549
23509SOL    HW275375   8.397   1.445   8.682
23510SOL     OW75376   8.799   0.590   8.881
23510SOL    HW175377   8.827   0.547   8.966
23510SOL    HW275378   8.824   0.686   8.882
23511SOL     OW75379   8.251   1.402   8.372
23511SOL    HW175380   8.341   1.416   8.330
23511SOL    HW275381   8.180   1.404   8.301
23512SOL     OW75382   8.370   0.503   8.347
23512SOL    HW175383   8.345   0.494   8.251
23512SOL    HW275384   8.418   0.421   8.378
23513SOL     OW75385   7.987   0.064   7.960
23513SOL    HW175386   7.906   0.065   8.018
23513SOL    HW275387   7.990   0.147   7.905
23514SOL     OW75388   8.882   1.188   7.489
23514SOL    HW175389   8.914   1.112   7.546
23514SOL    HW275390   8.790   1.215   7.519
23515SOL     OW75391   7.745   0.035   7.619
23515SOL    HW175392   7.794   0.119   7.598
23515SOL    HW275393   7.807  -0.030   7.664
23516SOL     OW75394   8.383   0.236   7.928
23516SOL    HW175395   8.335   0.277   7.850
23516SOL    HW275396   8.482   0.234   7.909
23517SOL     OW75397   8.524   0.683   8.912
23517SOL    HW175398   8.444   0.622   8.915
23517SOL    HW275399   8.605   0.630   8.888
23518SOL     OW75400   8.675   1.570   8.241
23518SOL    HW175401   8.696   1.644   8.176
23518SOL    HW275402   8.743   1.570   8.314
23519SOL     OW75403   7.907   1.152   8.189
23519SOL    HW175404   7.836   1.125   8.254
23519SOL    HW275405   7.881   1.124   8.096
23520SOL     OW75406   8.719   1.797   8.039
23520SOL    HW175407   8.763   1.861   7.975
23520SOL    HW275408   8.669   1.849   8.109
23521SOL     OW75409   8.480   0.549   7.464
23521SOL    HW175410   8.439   0.631   7.425
23521SOL    HW275411   8.544   0.575   7.537
23522SOL     OW75412   7.526   0.556   8.834
23522SOL    HW175413   7.618   0.555   8.793
23522SOL    HW275414   7.520   0.630   8.901
23523SOL     OW75415   8.314   0.454   8.090
23523SOL    HW175416   8.282   0.526   8.028
23523SOL    HW275417   8.338   0.373   8.037
23524SOL     OW75418   8.465   0.039   8.201
23524SOL    HW175419   8.393   0.044   8.132
23524SOL    HW275420   8.441  -0.030   8.270
23525SOL     OW75421   8.877   1.173   8.315
23525SOL    HW175422   8.822   1.089   8.308
23525SOL    HW275423   8.903   1.202   8.223
23526SOL     OW75424   8.914   0.590   8.440
23526SOL    HW175425   8.884   0.495   8.447
23526SOL    HW275426   8.987   0.606   8.506
23527SOL     OW75427   9.305   0.833   7.825
23527SOL    HW175428   9.347   0.769   7.889
23527SOL    HW275429   9.267   0.782   7.747
23528SOL     OW75430   7.936   1.385   7.622
23528SOL    HW175431   7.849   1.370   7.669
23528SOL    HW275432   7.919   1.411   7.527
23529SOL     OW75433   9.112   1.280   8.105
23529SOL    HW175434   9.211   1.288   8.119
23529SOL    HW275435   9.067   1.364   8.136
23530SOL     OW75436   8.838   0.575   7.526
23530SOL    HW175437   8.784   0.554   7.607
23530SOL    HW275438   8.929   0.534   7.535
23531SOL     OW75439   7.975   0.256   7.776
23531SOL    HW175440   8.002   0.197   7.701
23531SOL    HW275441   7.975   0.351   7.745
23532SOL     OW75442   9.202   1.223   9.036
23532SOL    HW175443   9.293   1.184   9.023
23532SOL    HW275444   9.210   1.319   9.060
23533SOL     OW75445   8.512   1.347   8.788
23533SOL    HW175446   8.432   1.324   8.843
23533SOL    HW275447   8.595   1.321   8.837
23534SOL     OW75448   9.040   1.629   9.073
23534SOL    HW175449   9.067   1.663   8.983
23534SOL    HW275450   9.119   1.591   9.119
23535SOL     OW75451   8.559   1.195   8.548
23535SOL    HW175452   8.519   1.239   8.629
23535SOL    HW275453   8.518   1.232   8.465
23536SOL     OW75454   9.086   1.099   8.527
23536SOL    HW175455   9.091   1.180   8.586
23536SOL    HW275456   9.000   1.101   8.476
23537SOL     OW75457   8.363   0.089   8.850
23537SOL    HW175458   8.388   0.069   8.755
23537SOL    HW275459   8.435   0.145   8.892
23538SOL     OW75460   8.428   1.116   9.167
23538SOL    HW175461   8.329   1.122   9.177
23538SOL    HW275462   8.451   1.036   9.111
23539SOL     OW75463   8.153   1.050   7.816
23539SOL    HW175464   8.139   1.057   7.915
23539SOL    HW275465   8.237   0.999   7.798
23540SOL     OW75466   7.858   0.813   8.699
23540SOL    HW175467   7.944   0.825   8.749
23540SOL    HW275468   7.816   0.726   8.726
23541SOL     OW75469   8.722   0.386   8.710
23541SOL    HW175470   8.743   0.460   8.774
23541SOL    HW275471   8.633   0.403   8.667
23542SOL     OW75472   7.512   1.564   8.779
23542SOL    HW175473   7.466   1.646   8.745
23542SOL    HW275474   7.610   1.583   8.788
23543SOL     OW75475   7.815   1.100   7.949
23543SOL    HW175476   7.808   1.183   7.893
23543SOL    HW275477   7.819   1.020   7.889
23544SOL     OW75478   8.700   1.348   7.836
23544SOL    HW175479   8.750   1.425   7.876
23544SOL    HW275480   8.605   1.350   7.868
23545SOL     OW75481   8.720   1.445   8.590
23545SOL    HW175482   8.767   1.458   8.677
23545SOL    HW275483   8.654   1.371   8.599
23546SOL     OW75484   9.030   0.639   7.920
23546SOL    HW175485   8.999   0.700   7.993
23546SOL    HW275486   9.080   0.691   7.851
23547SOL     OW75487   7.802   1.510   8.777
23547SOL    HW175488   7.781   1.466   8.690
23547SOL    HW275489   7.899   1.536   8.780
23548SOL     OW75490   7.850   0.751   9.046
23548SOL    HW175491   7.918   0.806   8.999
23548SOL    HW275492   7.890   0.663   9.073
23549SOL     OW75493   9.035   0.779   9.118
23549SOL    HW175494   8.943   0.817   9.113
23549SOL    HW275495   9.095   0.826   9.053
23550SOL     OW75496   8.461   0.105   9.218
23550SOL    HW175497   8.467   0.190   9.166
23550SOL    HW275498   8.493   0.029   9.161
23551SOL     OW75499   7.952   0.050   9.188
23551SOL    HW175500   7.910  -0.007   9.118
23551SOL    HW275501   7.886   0.119   9.220
23552SOL     OW75502   8.021   0.870   8.477
23552SOL    HW175503   8.065   0.959   8.468
23552SOL    HW275504   7.958   0.870   8.554
23553SOL     OW75505   8.808   0.862   8.493
23553SOL    HW175506   8.733   0.862   8.427
23553SOL    HW275507   8.845   0.770   8.502
23554SOL     OW75508   8.657   0.525   7.723
23554SOL    HW175509   8.670   0.441   7.777
23554SOL    HW275510   8.628   0.599   7.783
23555SOL     OW75511   7.485   1.310   8.730
23555SOL    HW175512   7.538   1.261   8.798
23555SOL    HW275513   7.507   1.408   8.735
23556SOL     OW75514   9.176   0.935   9.302
23556SOL    HW175515   9.130   0.928   9.213
23556SOL    HW275516   9.114   0.979   9.368
23557SOL     OW75517   9.070   0.367   7.822
23557SOL    HW175518   9.072   0.291   7.886
23557SOL    HW275519   9.022   0.444   7.862
23558SOL     OW75520   8.471   0.766   8.414
23558SOL    HW175521   8.486   0.787   8.510
23558SOL    HW275522   8.441   0.671   8.405
23559SOL     OW75523   8.428   1.573   9.148
23559SOL    HW175524   8.408   1.617   9.060
23559SOL    HW275525   8.467   1.482   9.132
23560SOL     OW75526   9.307   1.518   9.053
23560SOL    HW175527   9.321   1.545   8.958
23560SOL    HW275528   9.390   1.540   9.106
23561SOL     OW75529   7.798   0.898   9.252
23561SOL    HW175530   7.874   0.942   9.300
23561SOL    HW275531   7.833   0.851   9.170
23562SOL     OW75532   8.988   0.274   7.573
23562SOL    HW175533   8.927   0.199   7.596
23562SOL    HW275534   9.010   0.326   7.656
23563SOL     OW75535   8.751   0.838   7.490
23563SOL    HW175536   8.785   0.745   7.505
23563SOL    HW275537   8.769   0.865   7.395
23564SOL     OW75538   8.516   1.333   8.297
23564SOL    HW175539   8.523   1.249   8.242
23564SOL    HW275540   8.578   1.402   8.261
23565SOL     OW75541   7.767   0.810   8.397
23565SOL    HW175542   7.860   0.846   8.402
23565SOL    HW275543   7.761   0.725   8.449
23566SOL     OW75544   8.586   0.380   9.126
23566SOL    HW175545   8.541   0.443   9.190
23566SOL    HW275546   8.679   0.411   9.109
23567SOL     OW75547   8.608   0.207   8.925
23567SOL    HW175548   8.608   0.271   9.002
23567SOL    HW275549   8.636   0.255   8.842
23568SOL     OW75550   7.456   1.326   7.648
23568SOL    HW175551   7.363   1.347   7.617
23568SOL    HW275552   7.466   1.227   7.661
23569SOL     OW75553   7.536   1.801   8.375
23569SOL    HW175554   7.494   1.715   8.348
23569SOL    HW275555   7.630   1.804   8.341
23570SOL     OW75556   7.952   1.568   8.358
23570SOL    HW175557   8.018   1.642   8.367
23570SOL    HW275558   7.996   1.489   8.316
23571SOL     OW75559   8.450   0.796   8.686
23571SOL    HW175560   8.491   0.764   8.772
23571SOL    HW275561   8.354   0.769   8.683
23572SOL     OW75562   7.637   0.520   9.170
23572SOL    HW175563   7.696   0.480   9.100
23572SOL    HW275564   7.579   0.591   9.129
23573SOL     OW75565   8.817   0.950   9.108
23573SOL    HW175566   8.856   1.039   9.128
23573SOL    HW275567   8.827   0.930   9.011
23574SOL     OW75568   8.263   0.572   7.773
23574SOL    HW175569   8.270   0.483   7.727
23574SOL    HW275570   8.169   0.606   7.765
23575SOL     OW75571   9.105   0.604   8.654
23575SOL    HW175572   9.067   0.535   8.716
23575SOL    HW275573   9.187   0.568   8.610
23576SOL     OW75574   7.700   1.564   9.192
23576SOL    HW175575   7.670   1.621   9.268
23576SOL    HW275576   7.693   1.467   9.218
23577SOL     OW75577   8.378   1.678   8.913
23577SOL    HW175578   8.354   1.660   8.818
23577SOL    HW275579   8.408   1.772   8.923
23578SOL     OW75580   7.921   0.500   7.639
23578SOL    HW175581   7.982   0.580   7.643
23578SOL    HW275582   7.826   0.531   7.646
23579SOL     OW75583   7.607   1.137   8.914
23579SOL    HW175584   7.629   1.076   8.990
23579SOL    HW275585   7.617   1.088   8.828
23580SOL     OW75586   8.795   1.059   8.682
23580SOL    HW175587   8.819   0.996   8.608
23580SOL    HW275588   8.705   1.099   8.664
23581SOL     OW75589   8.750   0.855   7.757
23581SOL    HW175590   8.664   0.824   7.799
23581SOL    HW275591   8.746   0.841   7.658
23582SOL     OW75592   9.207   1.747   8.602
23582SOL    HW175593   9.268   1.777   8.529
23582SOL    HW275594   9.169   1.658   8.580
23583SOL     OW75595   8.700   1.731   8.576
23583SOL    HW175596   8.784   1.736   8.522
23583SOL    HW275597   8.677   1.635   8.594
23584SOL     OW75598   7.531   1.258   8.470
23584SOL    HW175599   7.526   1.257   8.570
23584SOL    HW275600   7.448   1.217   8.432
23585SOL     OW75601   8.136   1.662   9.164
23585SOL    HW175602   8.080   1.743   9.173
23585SOL    HW275603   8.188   1.666   9.078
23586SOL     OW75604   9.174   0.135   7.971
23586SOL    HW175605   9.247   0.118   7.904
23586SOL    HW275606   9.143   0.048   8.009
23587SOL     OW75607   8.836   1.573   7.925
23587SOL    HW175608   8.903   1.585   7.851
23587SOL    HW275609   8.796   1.662   7.948
23588SOL     OW75610   7.578   1.794   9.299
23588SOL    HW175611   7.537   1.720   9.352
23588SOL    HW275612   7.642   1.845   9.357
23589SOL     OW75613   8.728   0.927   8.120
23589SOL    HW175614   8.788   0.846   8.122
23589SOL    HW275615   8.768   0.996   8.060
23590SOL     OW75616   8.278   1.273   8.870
23590SOL    HW175617   8.273   1.306   8.965
23590SOL    HW275618   8.192   1.292   8.824
23591SOL     OW75619   8.120   1.616   7.602
23591SOL    HW175620   8.129   1.626   7.503
23591SOL    HW275621   8.080   1.527   7.623
23592SOL     OW75622   9.098   1.720   8.842
23592SOL    HW175623   9.151   1.730   8.758
23592SOL    HW275624   9.071   1.810   8.876
23593SOL     OW75625   9.289   0.175   8.411
23593SOL    HW175626   9.328   0.090   8.375
23593SOL    HW275627   9.191   0.177   8.392
23594SOL     OW75628   8.270   1.002   8.820
23594SOL    HW175629   8.310   1.001   8.728
23594SOL    HW275630   8.280   1.094   8.860
23595SOL     OW75631   8.364   0.910   7.739
23595SOL    HW175632   8.427   0.948   7.671
23595SOL    HW275633   8.404   0.827   7.778
23596SOL     OW75634   8.952   1.607   7.492
23596SOL    HW175635   8.860   1.644   7.499
23596SOL    HW275636   8.990   1.627   7.402
23597SOL     OW75637   7.820   1.288   8.938
23597SOL    HW175638   7.807   1.381   8.904
23597SOL    HW275639   7.736   1.236   8.925
23598SOL     OW75640   9.062   1.292   8.737
23598SOL    HW175641   9.122   1.295   8.817
23598SOL    HW275642   8.987   1.356   8.750
23599SOL     OW75643   8.487   1.098   8.144
23599SOL    HW175644   8.417   1.051   8.198
23599SOL    HW275645   8.546   1.030   8.101
23600SOL     OW75646   8.462   0.236   8.419
23600SOL    HW175647   8.454   0.200   8.326
23600SOL    HW275648   8.460   0.160   8.484
23601SOL     OW75649   8.038   1.487   7.939
23601SOL    HW175650   8.080   1.429   7.869
23601SOL    HW275651   7.994   1.566   7.895
23602SOL     OW75652   9.157   0.385   8.829
23602SOL    HW175653   9.230   0.454   8.833
23602SOL    HW275654   9.185   0.310   8.770
23603SOL     OW75655   7.703   1.348   7.738
23603SOL    HW175656   7.607   1.349   7.711
23603SOL    HW275657   7.715   1.401   7.822
23604SOL     OW75658   7.553   1.013   9.174
23604SOL    HW175659   7.476   0.980   9.228
23604SOL    HW275660   7.638   0.983   9.216
23605SOL     OW75661   7.523   0.345   7.481
23605SOL    HW175662   7.431   0.317   7.452
23605SOL    HW275663   7.554   0.422   7.425
23606SOL     OW75664   8.888   0.856   8.846
23606SOL    HW175665   8.831   0.908   8.783
23606SOL    HW275666   8.984   0.868   8.822
23607SOL     OW75667   7.520   0.166   7.766
23607SOL    HW175668   7.503   0.249   7.712
23607SOL    HW275669   7.610   0.129   7.744
23608SOL     OW75670   8.631   1.335   7.567
23608SOL    HW175671   8.532   1.324   7.569
23608SOL    HW275672   8.665   1.350   7.660
23609SOL     OW75673   8.061   0.842   8.879
23609SOL    HW175674   8.117   0.923   8.862
23609SOL    HW275675   8.120   0.762   8.882
23610SOL     OW75676   8.941   1.767   8.407
23610SOL    HW175677   8.974   1.831   8.338
23610SOL    HW275678   9.007   1.761   8.482
23611SOL     OW75679   8.164   0.565   9.156
23611SOL    HW175680   8.183   0.630   9.230
23611SOL    HW275681   8.224   0.485   9.165
23612SOL     OW75682   8.898   1.220   9.081
23612SOL    HW175683   8.889   1.210   9.180
23612SOL    HW275684   8.994   1.213   9.055
23613SOL     OW75685   7.838   1.741   9.008
23613SOL    HW175686   7.747   1.782   9.006
23613SOL    HW275687   7.831   1.647   9.040
23614SOL     OW75688   9.122   0.883   8.702
23614SOL    HW175689   9.095   0.794   8.665
23614SOL    HW275690   9.123   0.951   8.629
23615SOL     OW75691   8.673   0.325   7.897
23615SOL    HW175692   8.738   0.251   7.886
23615SOL    HW275693   8.693   0.375   7.981
23616SOL     OW75694   8.042   0.745   8.100
23616SOL    HW175695   8.092   0.830   8.081
23616SOL    HW275696   7.954   0.747   8.052
23617SOL     OW75697   9.225   0.342   9.090
23617SOL    HW175698   9.208   0.373   8.996
23617SOL    HW275699   9.141   0.305   9.128
23618SOL     OW75700   9.178   0.934   8.965
23618SOL    HW175701   9.216   1.025   8.980
23618SOL    HW275702   9.170   0.917   8.866
23619SOL     OW75703   8.307   1.374   7.464
23619SOL    HW175704   8.261   1.389   7.552
23619SOL    HW275705   8.351   1.459   7.434
23620SOL     OW75706   8.109   1.790   8.401
23620SOL    HW175707   8.063   1.878   8.388
23620SOL    HW275708   8.208   1.802   8.394
23621SOL     OW75709   8.307   0.956   8.309
23621SOL    HW175710   8.361   0.887   8.357
23621SOL    HW275711   8.275   1.025   8.375
23622SOL     OW75712   8.531   0.984   7.535
23622SOL    HW175713   8.508   1.037   7.453
23622SOL    HW275714   8.612   0.928   7.516
23623SOL     OW75715   9.309   1.569   8.299
23623SOL    HW175716   9.238   1.557   8.229
23623SOL    HW275717   9.310   1.490   8.359
23624SOL     OW75718   7.669   1.314   9.292
23624SOL    HW175719   7.604   1.241   9.271
23624SOL    HW275720   7.673   1.328   9.390
23625SOL     OW75721   7.527   1.240   8.101
23625SOL    HW175722   7.526   1.193   8.189
23625SOL    HW275723   7.609   1.212   8.050
23626SOL     OW75724   8.120   1.391   9.072
23626SOL    HW175725   8.042   1.341   9.110
23626SOL    HW275726   8.117   1.486   9.103
23627SOL     OW75727   9.272   0.192   8.675
23627SOL    HW175728   9.268   0.102   8.719
23627SOL    HW275729   9.275   0.181   8.576
23628SOL     OW75730   7.876   0.424   7.968
23628SOL    HW175731   7.906   0.352   7.906
23628SOL    HW275732   7.837   0.384   8.051
23629SOL     OW75733   9.153   1.487   8.552
23629SOL    HW175734   9.060   1.462   8.525
23629SOL    HW275735   9.179   1.437   8.634
23630SOL     OW75736   8.260   1.586   8.135
23630SOL    HW175737   8.292   1.596   8.041
23630SOL    HW275738   8.181   1.524   8.137
23631SOL     OW75739   8.872   0.214   8.560
23631SOL    HW175740   8.924   0.149   8.615
23631SOL    HW275741   8.823   0.277   8.621
23632SOL     OW75742   8.449   0.034   8.602
23632SOL    HW175743   8.386  -0.038   8.571
23632SOL    HW275744   8.542  -0.002   8.602
23633SOL     OW75745   8.218   1.330   7.749
23633SOL    HW175746   8.172   1.243   7.766
23633SOL    HW275747   8.309   1.327   7.790
23634SOL     OW75748   8.066   1.567   8.732
23634SOL    HW175749   8.061   1.649   8.789
23634SOL    HW275750   8.155   1.564   8.687
23635SOL     OW75751   8.800   0.052   7.616
23635SOL    HW175752   8.835   0.011   7.532
23635SOL    HW275753   8.710   0.014   7.636
23636SOL     OW75754   8.748   0.453   8.139
23636SOL    HW175755   8.689   0.533   8.143
23636SOL    HW275756   8.763   0.418   8.232
23637SOL     OW75757   9.041   0.221   8.330
23637SOL    HW175758   8.957   0.220   8.384
23637SOL    HW275759   9.043   0.304   8.274
23638SOL     OW75760   7.487   1.077   7.748
23638SOL    HW175761   7.586   1.066   7.739
23638SOL    HW275762   7.447   0.991   7.780
23639SOL     OW75763   8.323   1.646   7.785
23639SOL    HW175764   8.246   1.611   7.731
23639SOL    HW275765   8.291   1.717   7.847
23640SOL     OW75766   7.678   0.628   9.423
23640SOL    HW175767   7.585   0.626   9.460
23640SOL    HW275768   7.679   0.589   9.331
23641SOL     OW75769   9.203   0.607   9.541
23641SOL    HW175770   9.191   0.594   9.442
23641SOL    HW275771   9.173   0.526   9.590
23642SOL     OW75772   7.679   1.713   9.793
23642SOL    HW175773   7.713   1.790   9.847
23642SOL    HW275774   7.723   1.713   9.703
23643SOL     OW75775   8.054   0.964   9.433
23643SOL    HW175776   8.061   1.048   9.379
23643SOL    HW275777   8.100   0.977   9.521
23644SOL     OW75778   7.570   0.643   9.873
23644SOL    HW175779   7.525   0.555   9.890
23644SOL    HW275780   7.569   0.697   9.957
23645SOL     OW75781   9.290   1.767   9.669
23645SOL    HW175782   9.344   1.738   9.749
23645SOL    HW275783   9.320   1.857   9.640
23646SOL     OW75784   7.475   1.596   9.427
23646SOL    HW175785   7.456   1.500   9.448
23646SOL    HW275786   7.442   1.654   9.502
23647SOL     OW75787   9.137   0.922   9.922
23647SOL    HW175788   9.232   0.893   9.930
23647SOL    HW275789   9.129   0.987   9.847
23648SOL     OW75790   9.089   1.108   9.742
23648SOL    HW175791   9.175   1.110   9.690
23648SOL    HW275792   9.103   1.155   9.830
23649SOL     OW75793   8.973   0.999   9.500
23649SOL    HW175794   8.910   0.923   9.513
23649SOL    HW275795   9.021   1.017   9.586
23650SOL     OW75796   9.024   1.662   9.617
23650SOL    HW175797   9.113   1.708   9.620
23650SOL    HW275798   9.003   1.638   9.522
23651SOL     OW75799   8.489   0.701   9.739
23651SOL    HW175800   8.515   0.697   9.835
23651SOL    HW275801   8.404   0.650   9.725
23652SOL     OW75802   7.524   0.811  10.099
23652SOL    HW175803   7.623   0.799  10.108
23652SOL    HW275804   7.500   0.906  10.120
23653SOL     OW75805   8.313   0.348   9.505
23653SOL    HW175806   8.372   0.411   9.456
23653SOL    HW275807   8.332   0.254   9.476
23654SOL     OW75808   8.810   1.144   9.855
23654SOL    HW175809   8.893   1.115   9.807
23654SOL    HW275810   8.761   1.211   9.799
23655SOL     OW75811   8.456   1.456   9.787
23655SOL    HW175812   8.410   1.528   9.735
23655SOL    HW275813   8.452   1.476   9.885
23656SOL     OW75814   7.799   1.801  10.163
23656SOL    HW175815   7.849   1.715  10.169
23656SOL    HW275816   7.864   1.878  10.160
23657SOL     OW75817   7.769   0.943   9.552
23657SOL    HW175818   7.851   0.982   9.510
23657SOL    HW275819   7.742   0.861   9.503
23658SOL     OW75820   8.559   1.776   9.547
23658SOL    HW175821   8.499   1.714   9.597
23658SOL    HW275822   8.590   1.732   9.462
23659SOL     OW75823   9.080   1.377   9.391
23659SOL    HW175824   9.048   1.471   9.381
23659SOL    HW275825   9.004   1.314   9.379
23660SOL     OW75826   7.912   1.743   9.633
23660SOL    HW175827   7.945   1.782   9.719
23660SOL    HW275828   7.988   1.736   9.568
23661SOL     OW75829   8.848   0.107   9.736
23661SOL    HW175830   8.824   0.070   9.646
23661SOL    HW275831   8.947   0.123   9.740
23662SOL     OW75832   7.830   0.700   9.790
23662SOL    HW175833   7.875   0.610   9.787
23662SOL    HW275834   7.736   0.689   9.823
23663SOL     OW75835   8.062   0.122   9.427
23663SOL    HW175836   8.160   0.100   9.434
23663SOL    HW275837   8.031   0.105   9.334
23664SOL     OW75838   7.987   0.064   9.822
23664SOL    HW175839   7.906   0.065   9.880
23664SOL    HW275840   7.990   0.147   9.767
23665SOL     OW75841   8.882   1.188   9.351
23665SOL    HW175842   8.914   1.112   9.408
23665SOL    HW275843   8.790   1.215   9.381
23666SOL     OW75844   7.745   0.035   9.481
23666SOL    HW175845   7.794   0.119   9.460
23666SOL    HW275846   7.807  -0.030   9.526
23667SOL     OW75847   8.383   0.236   9.790
23667SOL    HW175848   8.335   0.277   9.712
23667SOL    HW275849   8.482   0.234   9.771
23668SOL     OW75850   8.719   1.797   9.901
23668SOL    HW175851   8.763   1.861   9.837
23668SOL    HW275852   8.669   1.849   9.971
23669SOL     OW75853   8.480   0.549   9.326
23669SOL    HW175854   8.439   0.631   9.287
23669SOL    HW275855   8.544   0.575   9.399
23670SOL     OW75856   8.314   0.454   9.952
23670SOL    HW175857   8.282   0.526   9.890
23670SOL    HW275858   8.338   0.373   9.899
23671SOL     OW75859   9.305   0.833   9.687
23671SOL    HW175860   9.347   0.769   9.751
23671SOL    HW275861   9.267   0.782   9.609
23672SOL     OW75862   7.936   1.385   9.484
23672SOL    HW175863   7.849   1.370   9.531
23672SOL    HW275864   7.919   1.411   9.389
23673SOL     OW75865   8.838   0.575   9.388
23673SOL    HW175866   8.784   0.554   9.469
23673SOL    HW275867   8.929   0.534   9.397
23674SOL     OW75868   7.975   0.256   9.638
23674SOL    HW175869   8.002   0.197   9.563
23674SOL    HW275870   7.975   0.351   9.607
23675SOL     OW75871   8.153   1.050   9.678
23675SOL    HW175872   8.139   1.057   9.777
23675SOL    HW275873   8.237   0.999   9.660
23676SOL     OW75874   7.815   1.100   9.811
23676SOL    HW175875   7.808   1.183   9.755
23676SOL    HW275876   7.819   1.020   9.751
23677SOL     OW75877   8.700   1.348   9.698
23677SOL    HW175878   8.750   1.425   9.738
23677SOL    HW275879   8.605   1.350   9.730
23678SOL     OW75880   9.030   0.639   9.782
23678SOL    HW175881   8.999   0.700   9.855
23678SOL    HW275882   9.080   0.691   9.713
23679SOL     OW75883   8.657   0.525   9.585
23679SOL    HW175884   8.670   0.441   9.639
23679SOL    HW275885   8.628   0.599   9.645
23680SOL     OW75886   7.755   0.063   9.928
23680SOL    HW175887   7.744   0.157   9.961
23680SOL    HW275888   7.750   0.000  10.005
23681SOL     OW75889   9.070   0.367   9.684
23681SOL    HW175890   9.072   0.291   9.748
23681SOL    HW275891   9.022   0.444   9.724
23682SOL     OW75892   8.988   0.274   9.435
23682SOL    HW175893   8.927   0.199   9.458
23682SOL    HW275894   9.010   0.326   9.518
23683SOL     OW75895   7.456   1.326   9.510
23683SOL    HW175896   7.363   1.347   9.479
23683SOL    HW275897   7.466   1.227   9.523
23684SOL     OW75898   8.263   0.572   9.635
23684SOL    HW175899   8.270   0.483   9.589
23684SOL    HW275900   8.169   0.606   9.627
23685SOL     OW75901   7.921   0.500   9.501
23685SOL    HW175902   7.982   0.580   9.505
23685SOL    HW275903   7.826   0.531   9.508
23686SOL     OW75904   8.750   0.855   9.619
23686SOL    HW175905   8.664   0.824   9.661
23686SOL    HW275906   8.746   0.841   9.520
23687SOL     OW75907   9.174   0.135   9.833
23687SOL    HW175908   9.247   0.118   9.766
23687SOL    HW275909   9.143   0.048   9.871
23688SOL     OW75910   8.836   1.573   9.787
23688SOL    HW175911   8.903   1.585   9.713
23688SOL    HW275912   8.796   1.662   9.810
23689SOL     OW75913   8.120   1.616   9.464
23689SOL    HW175914   8.129   1.626   9.365
23689SOL    HW275915   8.080   1.527   9.485
23690SOL     OW75916   9.289   0.175  10.273
23690SOL    HW175917   9.328   0.090  10.237
23690SOL    HW275918   9.191   0.177  10.254
23691SOL     OW75919   8.642   1.612   9.341
23691SOL    HW175920   8.648   1.519   9.378
23691SOL    HW275921   8.583   1.612   9.261
23692SOL     OW75922   8.364   0.910   9.601
23692SOL    HW175923   8.427   0.948   9.533
23692SOL    HW275924   8.404   0.827   9.640
23693SOL     OW75925   8.952   1.607   9.354
23693SOL    HW175926   8.860   1.644   9.361
23693SOL    HW275927   8.990   1.627   9.264
23694SOL     OW75928   8.038   1.487   9.801
23694SOL    HW175929   8.080   1.429   9.731
23694SOL    HW275930   7.994   1.566   9.757
23695SOL     OW75931   7.703   1.348   9.600
23695SOL    HW175932   7.607   1.349   9.573
23695SOL    HW275933   7.715   1.401   9.684
23696SOL     OW75934   7.523   0.345   9.343
23696SOL    HW175935   7.431   0.317   9.314
23696SOL    HW275936   7.554   0.422   9.287
23697SOL     OW75937   7.520   0.166   9.628
23697SOL    HW175938   7.503   0.249   9.574
23697SOL    HW275939   7.610   0.129   9.606
23698SOL     OW75940   8.631   1.335   9.429
23698SOL    HW175941   8.532   1.324   9.431
23698SOL    HW275942   8.665   1.350   9.522
23699SOL     OW75943   8.673   0.325   9.759
23699SOL    HW175944   8.738   0.251   9.748
23699SOL    HW275945   8.693   0.375   9.843
23700SOL     OW75946   8.042   0.745   9.962
23700SOL    HW175947   8.092   0.830   9.943
23700SOL    HW275948   7.954   0.747   9.914
23701SOL     OW75949   8.307   1.374   9.326
23701SOL    HW175950   8.261   1.389   9.414
23701SOL    HW275951   8.351   1.459   9.296
23702SOL     OW75952   8.531   0.984   9.397
23702SOL    HW175953   8.508   1.037   9.315
23702SOL    HW275954   8.612   0.928   9.378
23703SOL     OW75955   7.876   0.424   9.830
23703SOL    HW175956   7.906   0.352   9.768
23703SOL    HW275957   7.837   0.384   9.913
23704SOL     OW75958   8.218   1.330   9.611
23704SOL    HW175959   8.172   1.243   9.628
23704SOL    HW275960   8.309   1.327   9.652
23705SOL     OW75961   8.800   0.052   9.478
23705SOL    HW175962   8.835   0.011   9.394
23705SOL    HW275963   8.710   0.014   9.498
23706SOL     OW75964   7.487   1.077   9.610
23706SOL    HW175965   7.586   1.066   9.601
23706SOL    HW275966   7.447   0.991   9.642
23707SOL     OW75967   8.323   1.646   9.647
23707SOL    HW175968   8.246   1.611   9.593
23707SOL    HW275969   8.291   1.717   9.709
23708SOL     OW75970   7.678   2.490   0.113
23708SOL    HW175971   7.585   2.488   0.150
23708SOL    HW275972   7.679   2.451   0.021
23709SOL     OW75973   7.673   2.137   0.996
23709SOL    HW175974   7.708   2.120   1.088
23709SOL    HW275975   7.585   2.092   0.984
23710SOL     OW75976   7.467   2.230   0.647
23710SOL    HW175977   7.385   2.273   0.686
23710SOL    HW275978   7.439   2.157   0.584
23711SOL     OW75979   8.583   2.565   0.717
23711SOL    HW175980   8.640   2.643   0.692
23711SOL    HW275981   8.523   2.591   0.793
23712SOL     OW75982   9.203   2.469   0.231
23712SOL    HW175983   9.191   2.456   0.132
23712SOL    HW275984   9.173   2.388   0.280
23713SOL     OW75985   8.298   2.660   1.823
23713SOL    HW175986   8.294   2.736   1.888
23713SOL    HW275987   8.320   2.696   1.732
23714SOL     OW75988   8.133   2.874   0.665
23714SOL    HW175989   8.202   2.858   0.735
23714SOL    HW275990   8.060   2.931   0.703
23715SOL     OW75991   7.783   3.297   1.061
23715SOL    HW175992   7.705   3.266   1.008
23715SOL    HW275993   7.841   3.355   1.004
23716SOL     OW75994   8.908   3.367   1.339
23716SOL    HW175995   8.932   3.461   1.365
23716SOL    HW275996   8.892   3.313   1.421
23717SOL     OW75997   7.886   2.254   1.499
23717SOL    HW175998   7.968   2.198   1.508
23717SOL    HW275999   7.805   2.196   1.503
23718SOL     OW76000   9.051   2.309   0.737
23718SOL    HW176001   8.977   2.355   0.687
23718SOL    HW276002   9.102   2.377   0.790
23719SOL     OW76003   7.679   3.575   0.483
23719SOL    HW176004   7.713   3.652   0.537
23719SOL    HW276005   7.723   3.575   0.393
23720SOL     OW76006   8.575   3.203   1.690
23720SOL    HW176007   8.622   3.203   1.778
23720SOL    HW276008   8.527   3.116   1.679
23721SOL     OW76009   7.678   3.296   0.538
23721SOL    HW176010   7.652   3.392   0.538
23721SOL    HW276011   7.607   3.242   0.583
23722SOL     OW76012   7.688   2.953   0.886
23722SOL    HW176013   7.702   2.869   0.938
23722SOL    HW276014   7.633   3.017   0.941
23723SOL     OW76015   9.042   1.976   1.480
23723SOL    HW176016   9.024   2.043   1.408
23723SOL    HW276017   9.039   2.022   1.569
23724SOL     OW76018   7.570   2.505   0.563
23724SOL    HW176019   7.525   2.417   0.580
23724SOL    HW276020   7.569   2.559   0.647
23725SOL     OW76021   9.290   3.629   0.359
23725SOL    HW176022   9.344   3.600   0.439
23725SOL    HW276023   9.320   3.719   0.330
23726SOL     OW76024   9.137   2.784   0.612
23726SOL    HW176025   9.232   2.755   0.620
23726SOL    HW276026   9.129   2.849   0.537
23727SOL     OW76027   9.089   2.970   0.432
23727SOL    HW176028   9.175   2.972   0.380
23727SOL    HW276029   9.103   3.017   0.520
23728SOL     OW76030   7.561   2.599   1.597
23728SOL    HW176031   7.649   2.586   1.642
23728SOL    HW276032   7.548   2.696   1.575
23729SOL     OW76033   8.061   3.227   0.726
23729SOL    HW176034   8.012   3.140   0.735
23729SOL    HW276035   8.038   3.270   0.639
23730SOL     OW76036   8.741   3.090   1.423
23730SOL    HW176037   8.778   3.017   1.365
23730SOL    HW276038   8.793   3.095   1.508
23731SOL     OW76039   8.257   1.866   0.502
23731SOL    HW176040   8.297   1.957   0.493
23731SOL    HW276041   8.157   1.874   0.508
23732SOL     OW76042   7.645   2.838   1.264
23732SOL    HW176043   7.734   2.793   1.250
23732SOL    HW276044   7.572   2.773   1.245
23733SOL     OW76045   8.973   2.861   0.190
23733SOL    HW176046   8.910   2.785   0.203
23733SOL    HW276047   9.021   2.879   0.276
23734SOL     OW76048   8.635   3.654   1.616
23734SOL    HW176049   8.659   3.714   1.540
23734SOL    HW276050   8.642   3.559   1.586
23735SOL     OW76051   7.765   2.113   1.801
23735SOL    HW176052   7.836   2.184   1.807
23735SOL    HW276053   7.677   2.152   1.829
23736SOL     OW76054   8.914   3.279   0.953
23736SOL    HW176055   8.855   3.285   1.033
23736SOL    HW276056   8.899   3.191   0.907
23737SOL     OW76057   8.729   2.207   0.944
23737SOL    HW176058   8.643   2.157   0.931
23737SOL    HW276059   8.791   2.153   1.000
23738SOL     OW76060   9.024   3.524   0.307
23738SOL    HW176061   9.113   3.570   0.310
23738SOL    HW276062   9.003   3.500   0.212
23739SOL     OW76063   8.255   2.467   1.465
23739SOL    HW176064   8.208   2.464   1.554
23739SOL    HW276065   8.204   2.412   1.399
23740SOL     OW76066   8.842   2.331   1.674
23740SOL    HW176067   8.822   2.374   1.762
23740SOL    HW276068   8.920   2.269   1.683
23741SOL     OW76069   8.421   2.752   1.572
23741SOL    HW176070   8.467   2.668   1.543
23741SOL    HW276071   8.365   2.786   1.497
23742SOL     OW76072   8.439   2.272   1.242
23742SOL    HW176073   8.362   2.306   1.296
23742SOL    HW276074   8.405   2.221   1.163
23743SOL     OW76075   8.489   2.563   0.429
23743SOL    HW176076   8.515   2.559   0.525
23743SOL    HW276077   8.404   2.512   0.415
23744SOL     OW76078   7.524   2.673   0.789
23744SOL    HW176079   7.623   2.661   0.798
23744SOL    HW276080   7.500   2.768   0.810
23745SOL     OW76081   7.578   3.683   1.571
23745SOL    HW176082   7.568   3.668   1.670
23745SOL    HW276083   7.492   3.719   1.535
23746SOL     OW76084   8.313   2.210   0.195
23746SOL    HW176085   8.372   2.273   0.146
23746SOL    HW276086   8.332   2.116   0.166
23747SOL     OW76087   9.167   2.447   1.831
23747SOL    HW176088   9.141   2.536   1.795
23747SOL    HW276089   9.165   2.379   1.758
23748SOL     OW76090   8.810   3.006   0.545
23748SOL    HW176091   8.893   2.977   0.497
23748SOL    HW276092   8.761   3.073   0.489
23749SOL     OW76093   7.998   2.058   0.885
23749SOL    HW176094   7.993   2.053   0.985
23749SOL    HW276095   8.000   2.154   0.856
23750SOL     OW76096   8.456   3.318   0.477
23750SOL    HW176097   8.410   3.390   0.425
23750SOL    HW276098   8.452   3.338   0.575
23751SOL     OW76099   7.799   3.663   0.853
23751SOL    HW176100   7.849   3.577   0.859
23751SOL    HW276101   7.864   3.740   0.850
23752SOL     OW76102   9.243   2.928   0.873
23752SOL    HW176103   9.181   2.913   0.797
23752SOL    HW276104   9.191   2.939   0.958
23753SOL     OW76105   8.675   3.412   1.506
23753SOL    HW176106   8.681   3.335   1.570
23753SOL    HW276107   8.623   3.386   1.426
23754SOL     OW76108   7.769   2.805   0.242
23754SOL    HW176109   7.851   2.844   0.200
23754SOL    HW276110   7.742   2.723   0.193
23755SOL     OW76111   8.906   2.597   0.728
23755SOL    HW176112   8.901   2.532   0.803
23755SOL    HW276113   8.986   2.656   0.741
23756SOL     OW76114   7.909   3.128   1.727
23756SOL    HW176115   7.859   3.129   1.641
23756SOL    HW276116   7.846   3.110   1.803
23757SOL     OW76117   7.650   2.147   1.498
23757SOL    HW176118   7.570   2.207   1.485
23757SOL    HW276119   7.640   2.098   1.584
23758SOL     OW76120   9.080   3.239   0.081
23758SOL    HW176121   9.048   3.333   0.071
23758SOL    HW276122   9.004   3.176   0.069
23759SOL     OW76123   7.912   3.605   0.323
23759SOL    HW176124   7.945   3.644   0.409
23759SOL    HW276125   7.988   3.598   0.258
23760SOL     OW76126   8.848   1.969   0.426
23760SOL    HW176127   8.824   1.932   0.336
23760SOL    HW276128   8.947   1.985   0.430
23761SOL     OW76129   7.697   3.647   1.241
23761SOL    HW176130   7.754   3.582   1.291
23761SOL    HW276131   7.681   3.614   1.148
23762SOL     OW76132   8.388   3.560   0.904
23762SOL    HW176133   8.468   3.503   0.925
23762SOL    HW276134   8.339   3.520   0.827
23763SOL     OW76135   7.830   2.562   0.480
23763SOL    HW176136   7.875   2.472   0.477
23763SOL    HW276137   7.736   2.551   0.513
23764SOL     OW76138   8.995   2.084   1.729
23764SOL    HW176139   8.990   2.121   1.821
23764SOL    HW276140   8.923   2.015   1.717
23765SOL     OW76141   8.062   1.984   0.117
23765SOL    HW176142   8.160   1.962   0.124
23765SOL    HW276143   8.031   1.967   0.024
23766SOL     OW76144   8.229   2.126   1.749
23766SOL    HW176145   8.296   2.065   1.792
23766SOL    HW276146   8.156   2.145   1.814
23767SOL     OW76147   8.799   2.452   1.433
23767SOL    HW176148   8.827   2.409   1.518
23767SOL    HW276149   8.824   2.548   1.434
23768SOL     OW76150   8.251   3.264   0.924
23768SOL    HW176151   8.341   3.278   0.882
23768SOL    HW276152   8.180   3.266   0.853
23769SOL     OW76153   8.370   2.365   0.899
23769SOL    HW176154   8.345   2.356   0.803
23769SOL    HW276155   8.418   2.283   0.930
23770SOL     OW76156   7.987   1.926   0.512
23770SOL    HW176157   7.906   1.927   0.570
23770SOL    HW276158   7.990   2.009   0.457
23771SOL     OW76159   8.882   3.050   0.041
23771SOL    HW176160   8.914   2.974   0.098
23771SOL    HW276161   8.790   3.077   0.071
23772SOL     OW76162   8.383   2.098   0.480
23772SOL    HW176163   8.335   2.139   0.402
23772SOL    HW276164   8.482   2.096   0.461
23773SOL     OW76165   8.524   2.545   1.464
23773SOL    HW176166   8.444   2.484   1.467
23773SOL    HW276167   8.605   2.492   1.440
23774SOL     OW76168   7.907   3.014   0.741
23774SOL    HW176169   7.836   2.987   0.806
23774SOL    HW276170   7.881   2.986   0.648
23775SOL     OW76171   8.480   2.411   0.016
23775SOL    HW176172   8.439   2.493  -0.023
23775SOL    HW276173   8.544   2.437   0.089
23776SOL     OW76174   7.526   2.418   1.386
23776SOL    HW176175   7.618   2.417   1.345
23776SOL    HW276176   7.520   2.492   1.453
23777SOL     OW76177   8.009   2.084   1.147
23777SOL    HW176178   8.047   2.000   1.184
23777SOL    HW276179   7.921   2.103   1.191
23778SOL     OW76180   8.314   2.316   0.642
23778SOL    HW176181   8.282   2.388   0.580
23778SOL    HW276182   8.338   2.235   0.589
23779SOL     OW76183   8.877   3.035   0.867
23779SOL    HW176184   8.822   2.951   0.860
23779SOL    HW276185   8.903   3.064   0.775
23780SOL     OW76186   8.914   2.452   0.992
23780SOL    HW176187   8.884   2.357   0.999
23780SOL    HW276188   8.987   2.468   1.058
23781SOL     OW76189   9.305   2.695   0.377
23781SOL    HW176190   9.347   2.631   0.441
23781SOL    HW276191   9.267   2.644   0.299
23782SOL     OW76192   9.112   3.142   0.657
23782SOL    HW176193   9.211   3.150   0.671
23782SOL    HW276194   9.067   3.226   0.688
23783SOL     OW76195   8.838   2.437   0.078
23783SOL    HW176196   8.784   2.416   0.159
23783SOL    HW276197   8.929   2.396   0.087
23784SOL     OW76198   7.975   2.118   0.328
23784SOL    HW176199   8.002   2.059   0.253
23784SOL    HW276200   7.975   2.213   0.297
23785SOL     OW76201   9.202   3.085   1.588
23785SOL    HW176202   9.293   3.046   1.575
23785SOL    HW276203   9.210   3.181   1.612
23786SOL     OW76204   9.040   3.491   1.625
23786SOL    HW176205   9.067   3.525   1.535
23786SOL    HW276206   9.119   3.453   1.671
23787SOL     OW76207   8.559   3.057   1.100
23787SOL    HW176208   8.519   3.101   1.181
23787SOL    HW276209   8.518   3.094   1.017
23788SOL     OW76210   9.086   2.961   1.079
23788SOL    HW176211   9.091   3.042   1.138
23788SOL    HW276212   9.000   2.963   1.028
23789SOL     OW76213   8.363   1.951   1.402
23789SOL    HW176214   8.388   1.931   1.307
23789SOL    HW276215   8.435   2.007   1.444
23790SOL     OW76216   8.153   2.912   0.368
23790SOL    HW176217   8.139   2.919   0.467
23790SOL    HW276218   8.237   2.861   0.350
23791SOL     OW76219   7.858   2.675   1.251
23791SOL    HW176220   7.944   2.687   1.301
23791SOL    HW276221   7.816   2.588   1.278
23792SOL     OW76222   8.722   2.248   1.262
23792SOL    HW176223   8.743   2.322   1.326
23792SOL    HW276224   8.633   2.265   1.219
23793SOL     OW76225   7.512   3.426   1.331
23793SOL    HW176226   7.466   3.508   1.297
23793SOL    HW276227   7.610   3.445   1.340
23794SOL     OW76228   7.815   2.962   0.501
23794SOL    HW176229   7.808   3.045   0.445
23794SOL    HW276230   7.819   2.882   0.441
23795SOL     OW76231   8.014   2.399   0.865
23795SOL    HW176232   8.026   2.465   0.791
23795SOL    HW276233   8.060   2.433   0.948
23796SOL     OW76234   8.700   3.210   0.388
23796SOL    HW176235   8.750   3.287   0.428
23796SOL    HW276236   8.605   3.212   0.420
23797SOL     OW76237   8.720   3.307   1.142
23797SOL    HW176238   8.767   3.320   1.229
23797SOL    HW276239   8.654   3.233   1.151
23798SOL     OW76240   7.802   3.372   1.329
23798SOL    HW176241   7.781   3.328   1.242
23798SOL    HW276242   7.899   3.398   1.332
23799SOL     OW76243   7.850   2.613   1.598
23799SOL    HW176244   7.918   2.668   1.551
23799SOL    HW276245   7.890   2.525   1.625
23800SOL     OW76246   8.461   1.967   1.770
23800SOL    HW176247   8.467   2.052   1.718
23800SOL    HW276248   8.493   1.891   1.713
23801SOL     OW76249   7.952   1.912   1.740
23801SOL    HW176250   7.910   1.855   1.670
23801SOL    HW276251   7.886   1.981   1.772
23802SOL     OW76252   8.808   2.724   1.045
23802SOL    HW176253   8.733   2.724   0.979
23802SOL    HW276254   8.845   2.632   1.054
23803SOL     OW76255   8.657   2.387   0.275
23803SOL    HW176256   8.670   2.303   0.329
23803SOL    HW276257   8.628   2.461   0.335
23804SOL     OW76258   7.755   2.075   1.231
23804SOL    HW176259   7.732   2.112   1.321
23804SOL    HW276260   7.725   1.980   1.225
23805SOL     OW76261   7.485   3.172   1.282
23805SOL    HW176262   7.538   3.123   1.350
23805SOL    HW276263   7.507   3.270   1.287
23806SOL     OW76264   8.180   2.496   1.064
23806SOL    HW176265   8.239   2.470   0.988
23806SOL    HW276266   8.152   2.592   1.053
23807SOL     OW76267   9.176   2.797   1.854
23807SOL    HW176268   9.130   2.790   1.765
23807SOL    HW276269   9.114   2.841   1.920
23808SOL     OW76270   7.755   1.925   0.618
23808SOL    HW176271   7.744   2.019   0.651
23808SOL    HW276272   7.750   1.862   0.695
23809SOL     OW76273   9.070   2.229   0.374
23809SOL    HW176274   9.072   2.153   0.438
23809SOL    HW276275   9.022   2.306   0.414
23810SOL     OW76276   8.471   2.628   0.966
23810SOL    HW176277   8.486   2.649   1.062
23810SOL    HW276278   8.441   2.533   0.957
23811SOL     OW76279   8.428   3.435   1.700
23811SOL    HW176280   8.408   3.479   1.612
23811SOL    HW276281   8.467   3.344   1.684
23812SOL     OW76282   9.307   3.380   1.605
23812SOL    HW176283   9.321   3.407   1.510
23812SOL    HW276284   9.390   3.402   1.658
23813SOL     OW76285   7.798   2.760   1.804
23813SOL    HW176286   7.874   2.804   1.852
23813SOL    HW276287   7.833   2.713   1.722
23814SOL     OW76288   8.988   2.136   0.125
23814SOL    HW176289   8.927   2.061   0.148
23814SOL    HW276290   9.010   2.188   0.208
23815SOL     OW76291   8.516   3.195   0.849
23815SOL    HW176292   8.523   3.111   0.794
23815SOL    HW276293   8.578   3.264   0.813
23816SOL     OW76294   7.767   2.672   0.949
23816SOL    HW176295   7.860   2.708   0.954
23816SOL    HW276296   7.761   2.587   1.001
23817SOL     OW76297   7.787   2.371   1.006
23817SOL    HW176298   7.735   2.288   0.989
23817SOL    HW276299   7.864   2.376   0.942
23818SOL     OW76300   8.586   2.242   1.678
23818SOL    HW176301   8.541   2.305   1.742
23818SOL    HW276302   8.679   2.273   1.661
23819SOL     OW76303   8.608   2.069   1.477
23819SOL    HW176304   8.608   2.133   1.554
23819SOL    HW276305   8.636   2.117   1.394
23820SOL     OW76306   7.536   3.663   0.927
23820SOL    HW176307   7.494   3.577   0.900
23820SOL    HW276308   7.630   3.666   0.893
23821SOL     OW76309   7.952   3.430   0.910
23821SOL    HW176310   8.018   3.504   0.919
23821SOL    HW276311   7.996   3.351   0.868
23822SOL     OW76312   8.450   2.658   1.238
23822SOL    HW176313   8.491   2.626   1.324
23822SOL    HW276314   8.354   2.631   1.235
23823SOL     OW76315   7.488   2.406   1.114
23823SOL    HW176316   7.573   2.373   1.073
23823SOL    HW276317   7.501   2.421   1.212
23824SOL     OW76318   7.637   2.382   1.722
23824SOL    HW176319   7.696   2.342   1.652
23824SOL    HW276320   7.579   2.453   1.681
23825SOL     OW76321   8.817   2.812   1.660
23825SOL    HW176322   8.856   2.901   1.680
23825SOL    HW276323   8.827   2.792   1.563
23826SOL     OW76324   8.263   2.434   0.325
23826SOL    HW176325   8.270   2.345   0.279
23826SOL    HW276326   8.169   2.468   0.317
23827SOL     OW76327   9.105   2.466   1.206
23827SOL    HW176328   9.067   2.397   1.268
23827SOL    HW276329   9.187   2.430   1.162
23828SOL     OW76330   7.700   3.426   1.744
23828SOL    HW176331   7.670   3.483   1.820
23828SOL    HW276332   7.693   3.329   1.770
23829SOL     OW76333   8.119   2.326   1.269
23829SOL    HW176334   8.085   2.237   1.239
23829SOL    HW276335   8.145   2.380   1.189
23830SOL     OW76336   8.378   3.540   1.465
23830SOL    HW176337   8.354   3.522   1.370
23830SOL    HW276338   8.408   3.634   1.475
23831SOL     OW76339   7.921   2.362   0.191
23831SOL    HW176340   7.982   2.442   0.195
23831SOL    HW276341   7.826   2.393   0.198
23832SOL     OW76342   7.607   2.999   1.466
23832SOL    HW176343   7.629   2.938   1.542
23832SOL    HW276344   7.617   2.950   1.380
23833SOL     OW76345   8.795   2.921   1.234
23833SOL    HW176346   8.819   2.858   1.160
23833SOL    HW276347   8.705   2.961   1.216
23834SOL     OW76348   8.750   2.717   0.309
23834SOL    HW176349   8.664   2.686   0.351
23834SOL    HW276350   8.746   2.703   0.210
23835SOL     OW76351   9.207   3.609   1.154
23835SOL    HW176352   9.268   3.639   1.081
23835SOL    HW276353   9.169   3.520   1.132
23836SOL     OW76354   8.700   3.593   1.128
23836SOL    HW176355   8.784   3.598   1.074
23836SOL    HW276356   8.677   3.497   1.146
23837SOL     OW76357   7.531   3.120   1.022
23837SOL    HW176358   7.526   3.119   1.122
23837SOL    HW276359   7.448   3.079   0.984
23838SOL     OW76360   8.136   3.524   1.716
23838SOL    HW176361   8.080   3.605   1.725
23838SOL    HW276362   8.188   3.528   1.630
23839SOL     OW76363   8.351   1.948   0.133
23839SOL    HW176364   8.402   1.949   0.047
23839SOL    HW276365   8.407   1.906   0.204
23840SOL     OW76366   9.174   1.997   0.523
23840SOL    HW176367   9.247   1.980   0.456
23840SOL    HW276368   9.143   1.910   0.561
23841SOL     OW76369   7.578   3.656   1.851
23841SOL    HW176370   7.537   3.582   1.904
23841SOL    HW276371   7.642   3.707   1.909
23842SOL     OW76372   8.728   2.789   0.672
23842SOL    HW176373   8.788   2.708   0.674
23842SOL    HW276374   8.768   2.858   0.612
23843SOL     OW76375   8.120   3.478   0.154
23843SOL    HW176376   8.129   3.488   0.055
23843SOL    HW276377   8.080   3.389   0.175
23844SOL     OW76378   9.098   3.582   1.394
23844SOL    HW176379   9.151   3.592   1.310
23844SOL    HW276380   9.071   3.672   1.428
23845SOL     OW76381   9.289   2.037   0.963
23845SOL    HW176382   9.328   1.952   0.927
23845SOL    HW276383   9.191   2.039   0.944
23846SOL     OW76384   7.711   2.188   0.720
23846SOL    HW176385   7.632   2.239   0.686
23846SOL    HW276386   7.702   2.173   0.818
23847SOL     OW76387   8.642   3.474   0.031
23847SOL    HW176388   8.648   3.381   0.068
23847SOL    HW276389   8.583   3.474  -0.049
23848SOL     OW76390   8.364   2.772   0.291
23848SOL    HW176391   8.427   2.810   0.223
23848SOL    HW276392   8.404   2.689   0.330
23849SOL     OW76393   7.820   3.150   1.490
23849SOL    HW176394   7.807   3.243   1.456
23849SOL    HW276395   7.736   3.098   1.477
23850SOL     OW76396   9.062   3.154   1.289
23850SOL    HW176397   9.122   3.157   1.369
23850SOL    HW276398   8.987   3.218   1.302
23851SOL     OW76399   8.487   2.960   0.696
23851SOL    HW176400   8.417   2.913   0.750
23851SOL    HW276401   8.546   2.892   0.653
23852SOL     OW76402   8.462   2.098   0.971
23852SOL    HW176403   8.454   2.062   0.878
23852SOL    HW276404   8.460   2.022   1.036
23853SOL     OW76405   8.038   3.349   0.491
23853SOL    HW176406   8.080   3.291   0.421
23853SOL    HW276407   7.994   3.428   0.447
23854SOL     OW76408   9.157   2.247   1.381
23854SOL    HW176409   9.230   2.316   1.385
23854SOL    HW276410   9.185   2.172   1.322
23855SOL     OW76411   7.553   2.875   1.726
23855SOL    HW176412   7.476   2.842   1.780
23855SOL    HW276413   7.638   2.845   1.768
23856SOL     OW76414   8.120   2.065   1.489
23856SOL    HW176415   8.210   2.049   1.449
23856SOL    HW276416   8.128   2.070   1.588
23857SOL     OW76417   7.523   2.207   0.033
23857SOL    HW176418   7.431   2.179   0.004
23857SOL    HW276419   7.554   2.284  -0.023
23858SOL     OW76420   8.888   2.718   1.398
23858SOL    HW176421   8.831   2.770   1.335
23858SOL    HW276422   8.984   2.730   1.374
23859SOL     OW76423   7.520   2.028   0.318
23859SOL    HW176424   7.503   2.111   0.264
23859SOL    HW276425   7.610   1.991   0.296
23860SOL     OW76426   8.631   3.197   0.119
23860SOL    HW176427   8.532   3.186   0.121
23860SOL    HW276428   8.665   3.212   0.212
23861SOL     OW76429   8.061   2.704   1.431
23861SOL    HW176430   8.117   2.785   1.414
23861SOL    HW276431   8.120   2.624   1.434
23862SOL     OW76432   8.164   2.427   1.708
23862SOL    HW176433   8.183   2.492   1.782
23862SOL    HW276434   8.224   2.347   1.717
23863SOL     OW76435   8.898   3.082   1.633
23863SOL    HW176436   8.889   3.072   1.732
23863SOL    HW276437   8.994   3.075   1.607
23864SOL     OW76438   9.122   2.745   1.254
23864SOL    HW176439   9.095   2.656   1.217
23864SOL    HW276440   9.123   2.813   1.181
23865SOL     OW76441   8.673   2.187   0.449
23865SOL    HW176442   8.738   2.113   0.438
23865SOL    HW276443   8.693   2.237   0.533
23866SOL     OW76444   8.042   2.607   0.652
23866SOL    HW176445   8.092   2.692   0.633
23866SOL    HW276446   7.954   2.609   0.604
23867SOL     OW76447   9.225   2.204   1.642
23867SOL    HW176448   9.208   2.235   1.548
23867SOL    HW276449   9.141   2.167   1.680
23868SOL     OW76450   9.178   2.796   1.517
23868SOL    HW176451   9.216   2.887   1.532
23868SOL    HW276452   9.170   2.779   1.418
23869SOL     OW76453   8.307   3.236   0.016
23869SOL    HW176454   8.261   3.251   0.104
23869SOL    HW276455   8.351   3.321  -0.014
23870SOL     OW76456   8.109   3.652   0.953
23870SOL    HW176457   8.063   3.740   0.940
23870SOL    HW276458   8.208   3.664   0.946
23871SOL     OW76459   8.307   2.818   0.861
23871SOL    HW176460   8.361   2.749   0.909
23871SOL    HW276461   8.275   2.887   0.927
23872SOL     OW76462   8.531   2.846   0.087
23872SOL    HW176463   8.508   2.899   0.005
23872SOL    HW276464   8.612   2.790   0.068
23873SOL     OW76465   7.669   3.176   1.844
23873SOL    HW176466   7.604   3.103   1.823
23873SOL    HW276467   7.673   3.190   1.942
23874SOL     OW76468   7.527   3.102   0.653
23874SOL    HW176469   7.526   3.055   0.741
23874SOL    HW276470   7.609   3.074   0.602
23875SOL     OW76471   8.120   3.253   1.624
23875SOL    HW176472   8.042   3.203   1.662
23875SOL    HW276473   8.117   3.348   1.655
23876SOL     OW76474   9.272   2.054   1.227
23876SOL    HW176475   9.268   1.964   1.271
23876SOL    HW276476   9.275   2.043   1.128
23877SOL     OW76477   7.876   2.286   0.520
23877SOL    HW176478   7.906   2.214   0.458
23877SOL    HW276479   7.837   2.246   0.603
23878SOL     OW76480   9.153   3.349   1.104
23878SOL    HW176481   9.060   3.324   1.077
23878SOL    HW276482   9.179   3.299   1.186
23879SOL     OW76483   7.765   2.409   1.280
23879SOL    HW176484   7.803   2.350   1.352
23879SOL    HW276485   7.805   2.383   1.192
23880SOL     OW76486   8.260   3.448   0.687
23880SOL    HW176487   8.292   3.458   0.593
23880SOL    HW276488   8.181   3.386   0.689
23881SOL     OW76489   8.872   2.076   1.112
23881SOL    HW176490   8.924   2.011   1.167
23881SOL    HW276491   8.823   2.139   1.173
23882SOL     OW76492   8.449   1.896   1.154
23882SOL    HW176493   8.386   1.824   1.123
23882SOL    HW276494   8.542   1.860   1.154
23883SOL     OW76495   8.218   3.192   0.301
23883SOL    HW176496   8.172   3.105   0.318
23883SOL    HW276497   8.309   3.189   0.342
23884SOL     OW76498   8.066   3.429   1.284
23884SOL    HW176499   8.061   3.511   1.341
23884SOL    HW276500   8.155   3.426   1.239
23885SOL     OW76501   8.800   1.914   0.168
23885SOL    HW176502   8.835   1.873   0.084
23885SOL    HW276503   8.710   1.876   0.188
23886SOL     OW76504   8.748   2.315   0.691
23886SOL    HW176505   8.689   2.395   0.695
23886SOL    HW276506   8.763   2.280   0.784
23887SOL     OW76507   9.041   2.083   0.882
23887SOL    HW176508   8.957   2.082   0.936
23887SOL    HW276509   9.043   2.166   0.826
23888SOL     OW76510   7.487   2.939   0.300
23888SOL    HW176511   7.586   2.928   0.291
23888SOL    HW276512   7.447   2.853   0.332
23889SOL     OW76513   8.323   3.508   0.337
23889SOL    HW176514   8.246   3.473   0.283
23889SOL    HW276515   8.291   3.579   0.399
23890SOL     OW76516   7.678   2.490   1.975
23890SOL    HW176517   7.585   2.488   2.012
23890SOL    HW276518   7.679   2.451   1.883
23891SOL     OW76519   7.673   2.137   2.858
23891SOL    HW176520   7.708   2.120   2.950
23891SOL    HW276521   7.585   2.092   2.846
23892SOL     OW76522   7.467   2.230   2.509
23892SOL    HW176523   7.385   2.273   2.548
23892SOL    HW276524   7.439   2.157   2.446
23893SOL     OW76525   8.017   3.137   3.027
23893SOL    HW176526   7.924   3.130   2.990
23893SOL    HW276527   8.028   3.226   3.071
23894SOL     OW76528   9.003   3.373   2.565
23894SOL    HW176529   8.946   3.357   2.646
23894SOL    HW276530   8.944   3.383   2.485
23895SOL     OW76531   8.583   2.565   2.579
23895SOL    HW176532   8.640   2.643   2.554
23895SOL    HW276533   8.523   2.591   2.655
23896SOL     OW76534   8.216   3.006   2.885
23896SOL    HW176535   8.138   3.023   2.945
23896SOL    HW276536   8.250   3.093   2.849
23897SOL     OW76537   8.298   2.660   3.685
23897SOL    HW176538   8.294   2.736   3.750
23897SOL    HW276539   8.320   2.696   3.594
23898SOL     OW76540   8.133   2.874   2.527
23898SOL    HW176541   8.202   2.858   2.597
23898SOL    HW276542   8.060   2.931   2.565
23899SOL     OW76543   8.134   3.023   3.665
23899SOL    HW176544   8.194   3.102   3.679
23899SOL    HW276545   8.048   3.054   3.624
23900SOL     OW76546   7.783   3.297   2.923
23900SOL    HW176547   7.705   3.266   2.870
23900SOL    HW276548   7.841   3.355   2.866
23901SOL     OW76549   8.908   3.367   3.201
23901SOL    HW176550   8.932   3.461   3.227
23901SOL    HW276551   8.892   3.313   3.283
23902SOL     OW76552   7.886   2.254   3.361
23902SOL    HW176553   7.968   2.198   3.370
23902SOL    HW276554   7.805   2.196   3.365
23903SOL     OW76555   7.679   3.575   2.345
23903SOL    HW176556   7.713   3.652   2.399
23903SOL    HW276557   7.723   3.575   2.255
23904SOL     OW76558   8.575   3.203   3.552
23904SOL    HW176559   8.622   3.203   3.640
23904SOL    HW276560   8.527   3.116   3.541
23905SOL     OW76561   7.678   3.296   2.400
23905SOL    HW176562   7.652   3.392   2.400
23905SOL    HW276563   7.607   3.242   2.445
23906SOL     OW76564   7.688   2.953   2.748
23906SOL    HW176565   7.702   2.869   2.800
23906SOL    HW276566   7.633   3.017   2.803
23907SOL     OW76567   8.068   3.648   3.301
23907SOL    HW176568   7.976   3.631   3.336
23907SOL    HW276569   8.096   3.740   3.327
23908SOL     OW76570   9.042   1.976   3.342
23908SOL    HW176571   9.024   2.043   3.270
23908SOL    HW276572   9.039   2.022   3.431
23909SOL     OW76573   7.570   2.505   2.425
23909SOL    HW176574   7.525   2.417   2.442
23909SOL    HW276575   7.569   2.559   2.509
23910SOL     OW76576   9.290   3.629   2.221
23910SOL    HW176577   9.344   3.600   2.301
23910SOL    HW276578   9.320   3.719   2.192
23911SOL     OW76579   7.475   3.458   1.979
23911SOL    HW176580   7.456   3.362   2.000
23911SOL    HW276581   7.442   3.516   2.054
23912SOL     OW76582   9.137   2.784   2.474
23912SOL    HW176583   9.232   2.755   2.482
23912SOL    HW276584   9.129   2.849   2.399
23913SOL     OW76585   9.089   2.970   2.294
23913SOL    HW176586   9.175   2.972   2.242
23913SOL    HW276587   9.103   3.017   2.382
23914SOL     OW76588   8.061   3.227   2.588
23914SOL    HW176589   8.012   3.140   2.597
23914SOL    HW276590   8.038   3.270   2.501
23915SOL     OW76591   8.741   3.090   3.285
23915SOL    HW176592   8.778   3.017   3.227
23915SOL    HW276593   8.793   3.095   3.370
23916SOL     OW76594   8.257   1.866   2.364
23916SOL    HW176595   8.297   1.957   2.355
23916SOL    HW276596   8.157   1.874   2.370
23917SOL     OW76597   7.645   2.838   3.126
23917SOL    HW176598   7.734   2.793   3.112
23917SOL    HW276599   7.572   2.773   3.107
23918SOL     OW76600   8.973   2.861   2.052
23918SOL    HW176601   8.910   2.785   2.065
23918SOL    HW276602   9.021   2.879   2.138
23919SOL     OW76603   7.765   2.113   3.663
23919SOL    HW176604   7.836   2.184   3.669
23919SOL    HW276605   7.677   2.152   3.691
23920SOL     OW76606   8.914   3.279   2.815
23920SOL    HW176607   8.855   3.285   2.895
23920SOL    HW276608   8.899   3.191   2.769
23921SOL     OW76609   9.115   3.576   2.434
23921SOL    HW176610   9.074   3.553   2.346
23921SOL    HW276611   9.097   3.502   2.499
23922SOL     OW76612   8.046   2.591   2.132
23922SOL    HW176613   8.070   2.660   2.064
23922SOL    HW276614   7.968   2.624   2.186
23923SOL     OW76615   8.729   2.207   2.806
23923SOL    HW176616   8.643   2.157   2.793
23923SOL    HW276617   8.791   2.153   2.862
23924SOL     OW76618   9.024   3.524   2.169
23924SOL    HW176619   9.113   3.570   2.172
23924SOL    HW276620   9.003   3.500   2.074
23925SOL     OW76621   8.255   2.467   3.327
23925SOL    HW176622   8.208   2.464   3.416
23925SOL    HW276623   8.204   2.412   3.261
23926SOL     OW76624   8.842   2.331   3.536
23926SOL    HW176625   8.822   2.374   3.624
23926SOL    HW276626   8.920   2.269   3.545
23927SOL     OW76627   8.439   2.272   3.104
23927SOL    HW176628   8.362   2.306   3.158
23927SOL    HW276629   8.405   2.221   3.025
23928SOL     OW76630   8.489   2.563   2.291
23928SOL    HW176631   8.515   2.559   2.387
23928SOL    HW276632   8.404   2.512   2.277
23929SOL     OW76633   7.524   2.673   2.651
23929SOL    HW176634   7.623   2.661   2.660
23929SOL    HW276635   7.500   2.768   2.672
23930SOL     OW76636   7.578   3.683   3.433
23930SOL    HW176637   7.568   3.668   3.532
23930SOL    HW276638   7.492   3.719   3.397
23931SOL     OW76639   8.313   2.210   2.057
23931SOL    HW176640   8.372   2.273   2.008
23931SOL    HW276641   8.332   2.116   2.028
23932SOL     OW76642   9.167   2.447   3.693
23932SOL    HW176643   9.141   2.536   3.657
23932SOL    HW276644   9.165   2.379   3.620
23933SOL     OW76645   8.810   3.006   2.407
23933SOL    HW176646   8.893   2.977   2.359
23933SOL    HW276647   8.761   3.073   2.351
23934SOL     OW76648   7.998   2.058   2.747
23934SOL    HW176649   7.993   2.053   2.847
23934SOL    HW276650   8.000   2.154   2.718
23935SOL     OW76651   8.456   3.318   2.339
23935SOL    HW176652   8.410   3.390   2.287
23935SOL    HW276653   8.452   3.338   2.437
23936SOL     OW76654   7.799   3.663   2.715
23936SOL    HW176655   7.849   3.577   2.721
23936SOL    HW276656   7.864   3.740   2.712
23937SOL     OW76657   9.243   2.928   2.735
23937SOL    HW176658   9.181   2.913   2.659
23937SOL    HW276659   9.191   2.939   2.820
23938SOL     OW76660   8.675   3.412   3.368
23938SOL    HW176661   8.681   3.335   3.432
23938SOL    HW276662   8.623   3.386   3.288
23939SOL     OW76663   7.769   2.805   2.104
23939SOL    HW176664   7.851   2.844   2.062
23939SOL    HW276665   7.742   2.723   2.055
23940SOL     OW76666   8.906   2.597   2.590
23940SOL    HW176667   8.901   2.532   2.665
23940SOL    HW276668   8.986   2.656   2.603
23941SOL     OW76669   7.909   3.128   3.589
23941SOL    HW176670   7.859   3.129   3.503
23941SOL    HW276671   7.846   3.110   3.665
23942SOL     OW76672   8.559   3.638   2.099
23942SOL    HW176673   8.499   3.576   2.149
23942SOL    HW276674   8.590   3.594   2.014
23943SOL     OW76675   7.650   2.147   3.360
23943SOL    HW176676   7.570   2.207   3.347
23943SOL    HW276677   7.640   2.098   3.446
23944SOL     OW76678   9.080   3.239   1.943
23944SOL    HW176679   9.048   3.333   1.933
23944SOL    HW276680   9.004   3.176   1.931
23945SOL     OW76681   7.912   3.605   2.185
23945SOL    HW176682   7.945   3.644   2.271
23945SOL    HW276683   7.988   3.598   2.120
23946SOL     OW76684   8.848   1.969   2.288
23946SOL    HW176685   8.824   1.932   2.198
23946SOL    HW276686   8.947   1.985   2.292
23947SOL     OW76687   7.697   3.647   3.103
23947SOL    HW176688   7.754   3.582   3.153
23947SOL    HW276689   7.681   3.614   3.010
23948SOL     OW76690   8.388   3.560   2.766
23948SOL    HW176691   8.468   3.503   2.787
23948SOL    HW276692   8.339   3.520   2.689
23949SOL     OW76693   7.830   2.562   2.342
23949SOL    HW176694   7.875   2.472   2.339
23949SOL    HW276695   7.736   2.551   2.375
23950SOL     OW76696   8.995   2.084   3.591
23950SOL    HW176697   8.990   2.121   3.683
23950SOL    HW276698   8.923   2.015   3.579
23951SOL     OW76699   8.062   1.984   1.979
23951SOL    HW176700   8.160   1.962   1.986
23951SOL    HW276701   8.031   1.967   1.886
23952SOL     OW76702   8.229   2.126   3.611
23952SOL    HW176703   8.296   2.065   3.654
23952SOL    HW276704   8.156   2.145   3.676
23953SOL     OW76705   8.799   2.452   3.295
23953SOL    HW176706   8.827   2.409   3.380
23953SOL    HW276707   8.824   2.548   3.296
23954SOL     OW76708   8.251   3.264   2.786
23954SOL    HW176709   8.341   3.278   2.744
23954SOL    HW276710   8.180   3.266   2.715
23955SOL     OW76711   8.370   2.365   2.761
23955SOL    HW176712   8.345   2.356   2.665
23955SOL    HW276713   8.418   2.283   2.792
23956SOL     OW76714   7.987   1.926   2.374
23956SOL    HW176715   7.906   1.927   2.432
23956SOL    HW276716   7.990   2.009   2.319
23957SOL     OW76717   8.882   3.050   1.903
23957SOL    HW176718   8.914   2.974   1.960
23957SOL    HW276719   8.790   3.077   1.933
23958SOL     OW76720   7.745   1.897   2.033
23958SOL    HW176721   7.794   1.981   2.012
23958SOL    HW276722   7.807   1.832   2.078
23959SOL     OW76723   8.383   2.098   2.342
23959SOL    HW176724   8.335   2.139   2.264
23959SOL    HW276725   8.482   2.096   2.323
23960SOL     OW76726   8.524   2.545   3.326
23960SOL    HW176727   8.444   2.484   3.329
23960SOL    HW276728   8.605   2.492   3.302
23961SOL     OW76729   8.675   3.432   2.655
23961SOL    HW176730   8.696   3.506   2.590
23961SOL    HW276731   8.743   3.432   2.728
23962SOL     OW76732   7.907   3.014   2.603
23962SOL    HW176733   7.836   2.987   2.668
23962SOL    HW276734   7.881   2.986   2.510
23963SOL     OW76735   8.719   3.659   2.453
23963SOL    HW176736   8.763   3.723   2.389
23963SOL    HW276737   8.669   3.711   2.523
23964SOL     OW76738   8.480   2.411   1.878
23964SOL    HW176739   8.439   2.493   1.839
23964SOL    HW276740   8.544   2.437   1.951
23965SOL     OW76741   7.526   2.418   3.248
23965SOL    HW176742   7.618   2.417   3.207
23965SOL    HW276743   7.520   2.492   3.315
23966SOL     OW76744   8.009   2.084   3.009
23966SOL    HW176745   8.047   2.000   3.046
23966SOL    HW276746   7.921   2.103   3.053
23967SOL     OW76747   8.314   2.316   2.504
23967SOL    HW176748   8.282   2.388   2.442
23967SOL    HW276749   8.338   2.235   2.451
23968SOL     OW76750   8.465   1.901   2.615
23968SOL    HW176751   8.393   1.906   2.546
23968SOL    HW276752   8.441   1.832   2.684
23969SOL     OW76753   8.877   3.035   2.729
23969SOL    HW176754   8.822   2.951   2.722
23969SOL    HW276755   8.903   3.064   2.637
23970SOL     OW76756   8.914   2.452   2.854
23970SOL    HW176757   8.884   2.357   2.861
23970SOL    HW276758   8.987   2.468   2.920
23971SOL     OW76759   9.305   2.695   2.239
23971SOL    HW176760   9.347   2.631   2.303
23971SOL    HW276761   9.267   2.644   2.161
23972SOL     OW76762   7.936   3.247   2.036
23972SOL    HW176763   7.849   3.232   2.083
23972SOL    HW276764   7.919   3.273   1.941
23973SOL     OW76765   9.112   3.142   2.519
23973SOL    HW176766   9.211   3.150   2.533
23973SOL    HW276767   9.067   3.226   2.550
23974SOL     OW76768   8.838   2.437   1.940
23974SOL    HW176769   8.784   2.416   2.021
23974SOL    HW276770   8.929   2.396   1.949
23975SOL     OW76771   7.975   2.118   2.190
23975SOL    HW176772   8.002   2.059   2.115
23975SOL    HW276773   7.975   2.213   2.159
23976SOL     OW76774   8.559   3.057   2.962
23976SOL    HW176775   8.519   3.101   3.043
23976SOL    HW276776   8.518   3.094   2.879
23977SOL     OW76777   9.086   2.961   2.941
23977SOL    HW176778   9.091   3.042   3.000
23977SOL    HW276779   9.000   2.963   2.890
23978SOL     OW76780   8.363   1.951   3.264
23978SOL    HW176781   8.388   1.931   3.169
23978SOL    HW276782   8.435   2.007   3.306
23979SOL     OW76783   8.428   2.978   3.581
23979SOL    HW176784   8.329   2.984   3.591
23979SOL    HW276785   8.451   2.898   3.525
23980SOL     OW76786   8.153   2.912   2.230
23980SOL    HW176787   8.139   2.919   2.329
23980SOL    HW276788   8.237   2.861   2.212
23981SOL     OW76789   7.858   2.675   3.113
23981SOL    HW176790   7.944   2.687   3.163
23981SOL    HW276791   7.816   2.588   3.140
23982SOL     OW76792   8.722   2.248   3.124
23982SOL    HW176793   8.743   2.322   3.188
23982SOL    HW276794   8.633   2.265   3.081
23983SOL     OW76795   7.512   3.426   3.193
23983SOL    HW176796   7.466   3.508   3.159
23983SOL    HW276797   7.610   3.445   3.202
23984SOL     OW76798   7.815   2.962   2.363
23984SOL    HW176799   7.808   3.045   2.307
23984SOL    HW276800   7.819   2.882   2.303
23985SOL     OW76801   8.014   2.399   2.727
23985SOL    HW176802   8.026   2.465   2.653
23985SOL    HW276803   8.060   2.433   2.810
23986SOL     OW76804   8.700   3.210   2.250
23986SOL    HW176805   8.750   3.287   2.290
23986SOL    HW276806   8.605   3.212   2.282
23987SOL     OW76807   7.802   3.372   3.191
23987SOL    HW176808   7.781   3.328   3.104
23987SOL    HW276809   7.899   3.398   3.194
23988SOL     OW76810   7.850   2.613   3.460
23988SOL    HW176811   7.918   2.668   3.413
23988SOL    HW276812   7.890   2.525   3.487
23989SOL     OW76813   9.035   2.641   3.532
23989SOL    HW176814   8.943   2.679   3.527
23989SOL    HW276815   9.095   2.688   3.467
23990SOL     OW76816   8.461   1.967   3.632
23990SOL    HW176817   8.467   2.052   3.580
23990SOL    HW276818   8.493   1.891   3.575
23991SOL     OW76819   7.952   1.912   3.602
23991SOL    HW176820   7.910   1.855   3.532
23991SOL    HW276821   7.886   1.981   3.634
23992SOL     OW76822   8.021   2.732   2.891
23992SOL    HW176823   8.065   2.821   2.882
23992SOL    HW276824   7.958   2.732   2.968
23993SOL     OW76825   8.808   2.724   2.907
23993SOL    HW176826   8.733   2.724   2.841
23993SOL    HW276827   8.845   2.632   2.916
23994SOL     OW76828   8.657   2.387   2.137
23994SOL    HW176829   8.670   2.303   2.191
23994SOL    HW276830   8.628   2.461   2.197
23995SOL     OW76831   7.755   2.075   3.093
23995SOL    HW176832   7.732   2.112   3.183
23995SOL    HW276833   7.725   1.980   3.087
23996SOL     OW76834   7.485   3.172   3.144
23996SOL    HW176835   7.538   3.123   3.212
23996SOL    HW276836   7.507   3.270   3.149
23997SOL     OW76837   8.180   2.496   2.926
23997SOL    HW176838   8.239   2.470   2.850
23997SOL    HW276839   8.152   2.592   2.915
23998SOL     OW76840   9.176   2.797   3.716
23998SOL    HW176841   9.130   2.790   3.627
23998SOL    HW276842   9.114   2.841   3.782
23999SOL     OW76843   7.755   1.925   2.480
23999SOL    HW176844   7.744   2.019   2.513
23999SOL    HW276845   7.750   1.862   2.557
24000SOL     OW76846   8.471   2.628   2.828
24000SOL    HW176847   8.486   2.649   2.924
24000SOL    HW276848   8.441   2.533   2.819
24001SOL     OW76849   7.798   2.760   3.666
24001SOL    HW176850   7.874   2.804   3.714
24001SOL    HW276851   7.833   2.713   3.584
24002SOL     OW76852   8.988   2.136   1.987
24002SOL    HW176853   8.927   2.061   2.010
24002SOL    HW276854   9.010   2.188   2.070
24003SOL     OW76855   8.751   2.700   1.904
24003SOL    HW176856   8.785   2.607   1.919
24003SOL    HW276857   8.769   2.727   1.809
24004SOL     OW76858   8.516   3.195   2.711
24004SOL    HW176859   8.523   3.111   2.656
24004SOL    HW276860   8.578   3.264   2.675
24005SOL     OW76861   7.767   2.672   2.811
24005SOL    HW176862   7.860   2.708   2.816
24005SOL    HW276863   7.761   2.587   2.863
24006SOL     OW76864   7.787   2.371   2.868
24006SOL    HW176865   7.735   2.288   2.851
24006SOL    HW276866   7.864   2.376   2.804
24007SOL     OW76867   8.608   2.069   3.339
24007SOL    HW176868   8.608   2.133   3.416
24007SOL    HW276869   8.636   2.117   3.256
24008SOL     OW76870   7.456   3.188   2.062
24008SOL    HW176871   7.363   3.209   2.031
24008SOL    HW276872   7.466   3.089   2.075
24009SOL     OW76873   7.536   3.663   2.789
24009SOL    HW176874   7.494   3.577   2.762
24009SOL    HW276875   7.630   3.666   2.755
24010SOL     OW76876   7.952   3.430   2.772
24010SOL    HW176877   8.018   3.504   2.781
24010SOL    HW276878   7.996   3.351   2.730
24011SOL     OW76879   8.450   2.658   3.100
24011SOL    HW176880   8.491   2.626   3.186
24011SOL    HW276881   8.354   2.631   3.097
24012SOL     OW76882   7.488   2.406   2.976
24012SOL    HW176883   7.573   2.373   2.935
24012SOL    HW276884   7.501   2.421   3.074
24013SOL     OW76885   7.637   2.382   3.584
24013SOL    HW176886   7.696   2.342   3.514
24013SOL    HW276887   7.579   2.453   3.543
24014SOL     OW76888   8.817   2.812   3.522
24014SOL    HW176889   8.856   2.901   3.542
24014SOL    HW276890   8.827   2.792   3.425
24015SOL     OW76891   8.263   2.434   2.187
24015SOL    HW176892   8.270   2.345   2.141
24015SOL    HW276893   8.169   2.468   2.179
24016SOL     OW76894   9.105   2.466   3.068
24016SOL    HW176895   9.067   2.397   3.130
24016SOL    HW276896   9.187   2.430   3.024
24017SOL     OW76897   7.700   3.426   3.606
24017SOL    HW176898   7.670   3.483   3.682
24017SOL    HW276899   7.693   3.329   3.632
24018SOL     OW76900   8.119   2.326   3.131
24018SOL    HW176901   8.085   2.237   3.101
24018SOL    HW276902   8.145   2.380   3.051
24019SOL     OW76903   7.921   2.362   2.053
24019SOL    HW176904   7.982   2.442   2.057
24019SOL    HW276905   7.826   2.393   2.060
24020SOL     OW76906   7.607   2.999   3.328
24020SOL    HW176907   7.629   2.938   3.404
24020SOL    HW276908   7.617   2.950   3.242
24021SOL     OW76909   8.795   2.921   3.096
24021SOL    HW176910   8.819   2.858   3.022
24021SOL    HW276911   8.705   2.961   3.078
24022SOL     OW76912   8.750   2.717   2.171
24022SOL    HW176913   8.664   2.686   2.213
24022SOL    HW276914   8.746   2.703   2.072
24023SOL     OW76915   9.207   3.609   3.016
24023SOL    HW176916   9.268   3.639   2.943
24023SOL    HW276917   9.169   3.520   2.994
24024SOL     OW76918   7.531   3.120   2.884
24024SOL    HW176919   7.526   3.119   2.984
24024SOL    HW276920   7.448   3.079   2.846
24025SOL     OW76921   8.136   3.524   3.578
24025SOL    HW176922   8.080   3.605   3.587
24025SOL    HW276923   8.188   3.528   3.492
24026SOL     OW76924   9.174   1.997   2.385
24026SOL    HW176925   9.247   1.980   2.318
24026SOL    HW276926   9.143   1.910   2.423
24027SOL     OW76927   8.836   3.435   2.339
24027SOL    HW176928   8.903   3.447   2.265
24027SOL    HW276929   8.796   3.524   2.362
24028SOL     OW76930   7.578   3.656   3.713
24028SOL    HW176931   7.537   3.582   3.766
24028SOL    HW276932   7.642   3.707   3.771
24029SOL     OW76933   8.728   2.789   2.534
24029SOL    HW176934   8.788   2.708   2.536
24029SOL    HW276935   8.768   2.858   2.474
24030SOL     OW76936   8.278   3.135   3.284
24030SOL    HW176937   8.273   3.168   3.379
24030SOL    HW276938   8.192   3.154   3.238
24031SOL     OW76939   8.120   3.478   2.016
24031SOL    HW176940   8.129   3.488   1.917
24031SOL    HW276941   8.080   3.389   2.037
24032SOL     OW76942   9.098   3.582   3.256
24032SOL    HW176943   9.151   3.592   3.172
24032SOL    HW276944   9.071   3.672   3.290
24033SOL     OW76945   9.289   2.037   2.825
24033SOL    HW176946   9.328   1.952   2.789
24033SOL    HW276947   9.191   2.039   2.806
24034SOL     OW76948   7.711   2.188   2.582
24034SOL    HW176949   7.632   2.239   2.548
24034SOL    HW276950   7.702   2.173   2.680
24035SOL     OW76951   8.642   3.474   1.893
24035SOL    HW176952   8.648   3.381   1.930
24035SOL    HW276953   8.583   3.474   1.813
24036SOL     OW76954   8.270   2.864   3.234
24036SOL    HW176955   8.310   2.863   3.142
24036SOL    HW276956   8.280   2.956   3.274
24037SOL     OW76957   8.952   3.469   1.906
24037SOL    HW176958   8.860   3.506   1.913
24037SOL    HW276959   8.990   3.489   1.816
24038SOL     OW76960   7.820   3.150   3.352
24038SOL    HW176961   7.807   3.243   3.318
24038SOL    HW276962   7.736   3.098   3.339
24039SOL     OW76963   9.062   3.154   3.151
24039SOL    HW176964   9.122   3.157   3.231
24039SOL    HW276965   8.987   3.218   3.164
24040SOL     OW76966   8.487   2.960   2.558
24040SOL    HW176967   8.417   2.913   2.612
24040SOL    HW276968   8.546   2.892   2.515
24041SOL     OW76969   8.462   2.098   2.833
24041SOL    HW176970   8.454   2.062   2.740
24041SOL    HW276971   8.460   2.022   2.898
24042SOL     OW76972   8.038   3.349   2.353
24042SOL    HW176973   8.080   3.291   2.283
24042SOL    HW276974   7.994   3.428   2.309
24043SOL     OW76975   9.157   2.247   3.243
24043SOL    HW176976   9.230   2.316   3.247
24043SOL    HW276977   9.185   2.172   3.184
24044SOL     OW76978   7.703   3.210   2.152
24044SOL    HW176979   7.607   3.211   2.125
24044SOL    HW276980   7.715   3.263   2.236
24045SOL     OW76981   7.553   2.875   3.588
24045SOL    HW176982   7.476   2.842   3.642
24045SOL    HW276983   7.638   2.845   3.630
24046SOL     OW76984   8.120   2.065   3.351
24046SOL    HW176985   8.210   2.049   3.311
24046SOL    HW276986   8.128   2.070   3.450
24047SOL     OW76987   7.523   2.207   1.895
24047SOL    HW176988   7.431   2.179   1.866
24047SOL    HW276989   7.554   2.284   1.839
24048SOL     OW76990   8.888   2.718   3.260
24048SOL    HW176991   8.831   2.770   3.197
24048SOL    HW276992   8.984   2.730   3.236
24049SOL     OW76993   7.520   2.028   2.180
24049SOL    HW176994   7.503   2.111   2.126
24049SOL    HW276995   7.610   1.991   2.158
24050SOL     OW76996   8.061   2.704   3.293
24050SOL    HW176997   8.117   2.785   3.276
24050SOL    HW276998   8.120   2.624   3.296
24051SOL     OW76999   8.941   3.629   2.821
24051SOL    HW177000   8.974   3.693   2.752
24051SOL    HW277001   9.007   3.623   2.896
24052SOL     OW77002   8.164   2.427   3.570
24052SOL    HW177003   8.183   2.492   3.644
24052SOL    HW277004   8.224   2.347   3.579
24053SOL     OW77005   8.898   3.082   3.495
24053SOL    HW177006   8.889   3.072   3.594
24053SOL    HW277007   8.994   3.075   3.469
24054SOL     OW77008   7.838   3.603   3.422
24054SOL    HW177009   7.747   3.644   3.420
24054SOL    HW277010   7.831   3.509   3.454
24055SOL     OW77011   9.122   2.745   3.116
24055SOL    HW177012   9.095   2.656   3.079
24055SOL    HW277013   9.123   2.813   3.043
24056SOL     OW77014   8.042   2.607   2.514
24056SOL    HW177015   8.092   2.692   2.495
24056SOL    HW277016   7.954   2.609   2.466
24057SOL     OW77017   9.225   2.204   3.504
24057SOL    HW177018   9.208   2.235   3.410
24057SOL    HW277019   9.141   2.167   3.542
24058SOL     OW77020   9.178   2.796   3.379
24058SOL    HW177021   9.216   2.887   3.394
24058SOL    HW277022   9.170   2.779   3.280
24059SOL     OW77023   8.307   3.236   1.878
24059SOL    HW177024   8.261   3.251   1.966
24059SOL    HW277025   8.351   3.321   1.848
24060SOL     OW77026   8.109   3.652   2.815
24060SOL    HW177027   8.063   3.740   2.802
24060SOL    HW277028   8.208   3.664   2.808
24061SOL     OW77029   8.307   2.818   2.723
24061SOL    HW177030   8.361   2.749   2.771
24061SOL    HW277031   8.275   2.887   2.789
24062SOL     OW77032   9.309   3.431   2.713
24062SOL    HW177033   9.238   3.419   2.643
24062SOL    HW277034   9.310   3.352   2.773
24063SOL     OW77035   7.669   3.176   3.706
24063SOL    HW177036   7.604   3.103   3.685
24063SOL    HW277037   7.673   3.190   3.804
24064SOL     OW77038   7.527   3.102   2.515
24064SOL    HW177039   7.526   3.055   2.603
24064SOL    HW277040   7.609   3.074   2.464
24065SOL     OW77041   8.120   3.253   3.486
24065SOL    HW177042   8.042   3.203   3.524
24065SOL    HW277043   8.117   3.348   3.517
24066SOL     OW77044   9.272   2.054   3.089
24066SOL    HW177045   9.268   1.964   3.133
24066SOL    HW277046   9.275   2.043   2.990
24067SOL     OW77047   7.876   2.286   2.382
24067SOL    HW177048   7.906   2.214   2.320
24067SOL    HW277049   7.837   2.246   2.465
24068SOL     OW77050   9.153   3.349   2.966
24068SOL    HW177051   9.060   3.324   2.939
24068SOL    HW277052   9.179   3.299   3.048
24069SOL     OW77053   7.765   2.409   3.142
24069SOL    HW177054   7.803   2.350   3.214
24069SOL    HW277055   7.805   2.383   3.054
24070SOL     OW77056   8.260   3.448   2.549
24070SOL    HW177057   8.292   3.458   2.455
24070SOL    HW277058   8.181   3.386   2.551
24071SOL     OW77059   8.872   2.076   2.974
24071SOL    HW177060   8.924   2.011   3.029
24071SOL    HW277061   8.823   2.139   3.035
24072SOL     OW77062   8.449   1.896   3.016
24072SOL    HW177063   8.386   1.824   2.985
24072SOL    HW277064   8.542   1.860   3.016
24073SOL     OW77065   8.218   3.192   2.163
24073SOL    HW177066   8.172   3.105   2.180
24073SOL    HW277067   8.309   3.189   2.204
24074SOL     OW77068   8.066   3.429   3.146
24074SOL    HW177069   8.061   3.511   3.203
24074SOL    HW277070   8.155   3.426   3.101
24075SOL     OW77071   8.800   1.914   2.030
24075SOL    HW177072   8.835   1.873   1.946
24075SOL    HW277073   8.710   1.876   2.050
24076SOL     OW77074   8.748   2.315   2.553
24076SOL    HW177075   8.689   2.395   2.557
24076SOL    HW277076   8.763   2.280   2.646
24077SOL     OW77077   9.041   2.083   2.744
24077SOL    HW177078   8.957   2.082   2.798
24077SOL    HW277079   9.043   2.166   2.688
24078SOL     OW77080   7.487   2.939   2.162
24078SOL    HW177081   7.586   2.928   2.153
24078SOL    HW277082   7.447   2.853   2.194
24079SOL     OW77083   8.323   3.508   2.199
24079SOL    HW177084   8.246   3.473   2.145
24079SOL    HW277085   8.291   3.579   2.261
24080SOL     OW77086   7.678   2.490   3.837
24080SOL    HW177087   7.585   2.488   3.874
24080SOL    HW277088   7.679   2.451   3.745
24081SOL     OW77089   7.673   2.137   4.720
24081SOL    HW177090   7.708   2.120   4.812
24081SOL    HW277091   7.585   2.092   4.708
24082SOL     OW77092   7.467   2.230   4.371
24082SOL    HW177093   7.385   2.273   4.410
24082SOL    HW277094   7.439   2.157   4.308
24083SOL     OW77095   8.017   3.137   4.889
24083SOL    HW177096   7.924   3.130   4.852
24083SOL    HW277097   8.028   3.226   4.933
24084SOL     OW77098   9.003   3.373   4.427
24084SOL    HW177099   8.946   3.357   4.508
24084SOL    HW277100   8.944   3.383   4.347
24085SOL     OW77101   8.583   2.565   4.441
24085SOL    HW177102   8.640   2.643   4.416
24085SOL    HW277103   8.523   2.591   4.517
24086SOL     OW77104   9.203   2.469   3.955
24086SOL    HW177105   9.191   2.456   3.856
24086SOL    HW277106   9.173   2.388   4.004
24087SOL     OW77107   8.216   3.006   4.747
24087SOL    HW177108   8.138   3.023   4.807
24087SOL    HW277109   8.250   3.093   4.711
24088SOL     OW77110   8.133   2.874   4.389
24088SOL    HW177111   8.202   2.858   4.459
24088SOL    HW277112   8.060   2.931   4.427
24089SOL     OW77113   8.134   3.023   5.527
24089SOL    HW177114   8.194   3.102   5.541
24089SOL    HW277115   8.048   3.054   5.486
24090SOL     OW77116   7.783   3.297   4.785
24090SOL    HW177117   7.705   3.266   4.732
24090SOL    HW277118   7.841   3.355   4.728
24091SOL     OW77119   8.908   3.367   5.063
24091SOL    HW177120   8.932   3.461   5.089
24091SOL    HW277121   8.892   3.313   5.145
24092SOL     OW77122   7.886   2.254   5.223
24092SOL    HW177123   7.968   2.198   5.232
24092SOL    HW277124   7.805   2.196   5.227
24093SOL     OW77125   9.051   2.309   4.461
24093SOL    HW177126   8.977   2.355   4.411
24093SOL    HW277127   9.102   2.377   4.514
24094SOL     OW77128   7.679   3.575   4.207
24094SOL    HW177129   7.713   3.652   4.261
24094SOL    HW277130   7.723   3.575   4.117
24095SOL     OW77131   8.575   3.203   5.414
24095SOL    HW177132   8.622   3.203   5.502
24095SOL    HW277133   8.527   3.116   5.403
24096SOL     OW77134   7.678   3.296   4.262
24096SOL    HW177135   7.652   3.392   4.262
24096SOL    HW277136   7.607   3.242   4.307
24097SOL     OW77137   7.688   2.953   4.610
24097SOL    HW177138   7.702   2.869   4.662
24097SOL    HW277139   7.633   3.017   4.665
24098SOL     OW77140   8.068   3.648   5.163
24098SOL    HW177141   7.976   3.631   5.198
24098SOL    HW277142   8.096   3.740   5.189
24099SOL     OW77143   8.054   2.826   3.847
24099SOL    HW177144   8.061   2.910   3.793
24099SOL    HW277145   8.100   2.839   3.935
24100SOL     OW77146   7.570   2.505   4.287
24100SOL    HW177147   7.525   2.417   4.304
24100SOL    HW277148   7.569   2.559   4.371
24101SOL     OW77149   9.290   3.629   4.083
24101SOL    HW177150   9.344   3.600   4.163
24101SOL    HW277151   9.320   3.719   4.054
24102SOL     OW77152   7.475   3.458   3.841
24102SOL    HW177153   7.456   3.362   3.862
24102SOL    HW277154   7.442   3.516   3.916
24103SOL     OW77155   9.137   2.784   4.336
24103SOL    HW177156   9.232   2.755   4.344
24103SOL    HW277157   9.129   2.849   4.261
24104SOL     OW77158   9.089   2.970   4.156
24104SOL    HW177159   9.175   2.972   4.104
24104SOL    HW277160   9.103   3.017   4.244
24105SOL     OW77161   7.561   2.599   5.321
24105SOL    HW177162   7.649   2.586   5.366
24105SOL    HW277163   7.548   2.696   5.299
24106SOL     OW77164   8.061   3.227   4.450
24106SOL    HW177165   8.012   3.140   4.459
24106SOL    HW277166   8.038   3.270   4.363
24107SOL     OW77167   8.741   3.090   5.147
24107SOL    HW177168   8.778   3.017   5.089
24107SOL    HW277169   8.793   3.095   5.232
24108SOL     OW77170   8.257   1.866   4.226
24108SOL    HW177171   8.297   1.957   4.217
24108SOL    HW277172   8.157   1.874   4.232
24109SOL     OW77173   7.645   2.838   4.988
24109SOL    HW177174   7.734   2.793   4.974
24109SOL    HW277175   7.572   2.773   4.969
24110SOL     OW77176   8.973   2.861   3.914
24110SOL    HW177177   8.910   2.785   3.927
24110SOL    HW277178   9.021   2.879   4.000
24111SOL     OW77179   8.635   3.654   5.340
24111SOL    HW177180   8.659   3.714   5.264
24111SOL    HW277181   8.642   3.559   5.310
24112SOL     OW77182   7.765   2.113   5.525
24112SOL    HW177183   7.836   2.184   5.531
24112SOL    HW277184   7.677   2.152   5.553
24113SOL     OW77185   8.914   3.279   4.677
24113SOL    HW177186   8.855   3.285   4.757
24113SOL    HW277187   8.899   3.191   4.631
24114SOL     OW77188   9.115   3.576   4.296
24114SOL    HW177189   9.074   3.553   4.208
24114SOL    HW277190   9.097   3.502   4.361
24115SOL     OW77191   8.046   2.591   3.994
24115SOL    HW177192   8.070   2.660   3.926
24115SOL    HW277193   7.968   2.624   4.048
24116SOL     OW77194   8.729   2.207   4.668
24116SOL    HW177195   8.643   2.157   4.655
24116SOL    HW277196   8.791   2.153   4.724
24117SOL     OW77197   9.024   3.524   4.031
24117SOL    HW177198   9.113   3.570   4.034
24117SOL    HW277199   9.003   3.500   3.936
24118SOL     OW77200   8.842   2.331   5.398
24118SOL    HW177201   8.822   2.374   5.486
24118SOL    HW277202   8.920   2.269   5.407
24119SOL     OW77203   8.421   2.752   5.296
24119SOL    HW177204   8.467   2.668   5.267
24119SOL    HW277205   8.365   2.786   5.221
24120SOL     OW77206   8.489   2.563   4.153
24120SOL    HW177207   8.515   2.559   4.249
24120SOL    HW277208   8.404   2.512   4.139
24121SOL     OW77209   7.524   2.673   4.513
24121SOL    HW177210   7.623   2.661   4.522
24121SOL    HW277211   7.500   2.768   4.534
24122SOL     OW77212   7.578   3.683   5.295
24122SOL    HW177213   7.568   3.668   5.394
24122SOL    HW277214   7.492   3.719   5.259
24123SOL     OW77215   8.313   2.210   3.919
24123SOL    HW177216   8.372   2.273   3.870
24123SOL    HW277217   8.332   2.116   3.890
24124SOL     OW77218   9.167   2.447   5.555
24124SOL    HW177219   9.141   2.536   5.519
24124SOL    HW277220   9.165   2.379   5.482
24125SOL     OW77221   8.810   3.006   4.269
24125SOL    HW177222   8.893   2.977   4.221
24125SOL    HW277223   8.761   3.073   4.213
24126SOL     OW77224   7.998   2.058   4.609
24126SOL    HW177225   7.993   2.053   4.709
24126SOL    HW277226   8.000   2.154   4.580
24127SOL     OW77227   7.799   3.663   4.577
24127SOL    HW177228   7.849   3.577   4.583
24127SOL    HW277229   7.864   3.740   4.574
24128SOL     OW77230   9.243   2.928   4.597
24128SOL    HW177231   9.181   2.913   4.521
24128SOL    HW277232   9.191   2.939   4.682
24129SOL     OW77233   8.675   3.412   5.230
24129SOL    HW177234   8.681   3.335   5.294
24129SOL    HW277235   8.623   3.386   5.150
24130SOL     OW77236   7.769   2.805   3.966
24130SOL    HW177237   7.851   2.844   3.924
24130SOL    HW277238   7.742   2.723   3.917
24131SOL     OW77239   8.906   2.597   4.452
24131SOL    HW177240   8.901   2.532   4.527
24131SOL    HW277241   8.986   2.656   4.465
24132SOL     OW77242   7.909   3.128   5.451
24132SOL    HW177243   7.859   3.129   5.365
24132SOL    HW277244   7.846   3.110   5.527
24133SOL     OW77245   8.559   3.638   3.961
24133SOL    HW177246   8.499   3.576   4.011
24133SOL    HW277247   8.590   3.594   3.876
24134SOL     OW77248   7.650   2.147   5.222
24134SOL    HW177249   7.570   2.207   5.209
24134SOL    HW277250   7.640   2.098   5.308
24135SOL     OW77251   9.080   3.239   3.805
24135SOL    HW177252   9.048   3.333   3.795
24135SOL    HW277253   9.004   3.176   3.793
24136SOL     OW77254   7.912   3.605   4.047
24136SOL    HW177255   7.945   3.644   4.133
24136SOL    HW277256   7.988   3.598   3.982
24137SOL     OW77257   8.848   1.969   4.150
24137SOL    HW177258   8.824   1.932   4.060
24137SOL    HW277259   8.947   1.985   4.154
24138SOL     OW77260   7.697   3.647   4.965
24138SOL    HW177261   7.754   3.582   5.015
24138SOL    HW277262   7.681   3.614   4.872
24139SOL     OW77263   8.995   2.084   5.453
24139SOL    HW177264   8.990   2.121   5.545
24139SOL    HW277265   8.923   2.015   5.441
24140SOL     OW77266   8.229   2.126   5.473
24140SOL    HW177267   8.296   2.065   5.516
24140SOL    HW277268   8.156   2.145   5.538
24141SOL     OW77269   8.336   3.376   4.919
24141SOL    HW177270   8.313   3.351   4.825
24141SOL    HW277271   8.397   3.307   4.958
24142SOL     OW77272   8.799   2.452   5.157
24142SOL    HW177273   8.827   2.409   5.242
24142SOL    HW277274   8.824   2.548   5.158
24143SOL     OW77275   8.370   2.365   4.623
24143SOL    HW177276   8.345   2.356   4.527
24143SOL    HW277277   8.418   2.283   4.654
24144SOL     OW77278   8.882   3.050   3.765
24144SOL    HW177279   8.914   2.974   3.822
24144SOL    HW277280   8.790   3.077   3.795
24145SOL     OW77281   8.383   2.098   4.204
24145SOL    HW177282   8.335   2.139   4.126
24145SOL    HW277283   8.482   2.096   4.185
24146SOL     OW77284   8.675   3.432   4.517
24146SOL    HW177285   8.696   3.506   4.452
24146SOL    HW277286   8.743   3.432   4.590
24147SOL     OW77287   7.907   3.014   4.465
24147SOL    HW177288   7.836   2.987   4.530
24147SOL    HW277289   7.881   2.986   4.372
24148SOL     OW77290   8.719   3.659   4.315
24148SOL    HW177291   8.763   3.723   4.251
24148SOL    HW277292   8.669   3.711   4.385
24149SOL     OW77293   7.526   2.418   5.110
24149SOL    HW177294   7.618   2.417   5.069
24149SOL    HW277295   7.520   2.492   5.177
24150SOL     OW77296   8.009   2.084   4.871
24150SOL    HW177297   8.047   2.000   4.908
24150SOL    HW277298   7.921   2.103   4.915
24151SOL     OW77299   8.314   2.316   4.366
24151SOL    HW177300   8.282   2.388   4.304
24151SOL    HW277301   8.338   2.235   4.313
24152SOL     OW77302   8.465   1.901   4.477
24152SOL    HW177303   8.393   1.906   4.408
24152SOL    HW277304   8.441   1.832   4.546
24153SOL     OW77305   8.877   3.035   4.591
24153SOL    HW177306   8.822   2.951   4.584
24153SOL    HW277307   8.903   3.064   4.499
24154SOL     OW77308   8.914   2.452   4.716
24154SOL    HW177309   8.884   2.357   4.723
24154SOL    HW277310   8.987   2.468   4.782
24155SOL     OW77311   9.305   2.695   4.101
24155SOL    HW177312   9.347   2.631   4.165
24155SOL    HW277313   9.267   2.644   4.023
24156SOL     OW77314   7.936   3.247   3.898
24156SOL    HW177315   7.849   3.232   3.945
24156SOL    HW277316   7.919   3.273   3.803
24157SOL     OW77317   9.112   3.142   4.381
24157SOL    HW177318   9.211   3.150   4.395
24157SOL    HW277319   9.067   3.226   4.412
24158SOL     OW77320   9.202   3.085   5.312
24158SOL    HW177321   9.293   3.046   5.299
24158SOL    HW277322   9.210   3.181   5.336
24159SOL     OW77323   8.512   3.209   5.064
24159SOL    HW177324   8.432   3.186   5.119
24159SOL    HW277325   8.595   3.183   5.113
24160SOL     OW77326   9.040   3.491   5.349
24160SOL    HW177327   9.067   3.525   5.259
24160SOL    HW277328   9.119   3.453   5.395
24161SOL     OW77329   8.559   3.057   4.824
24161SOL    HW177330   8.519   3.101   4.905
24161SOL    HW277331   8.518   3.094   4.741
24162SOL     OW77332   9.086   2.961   4.803
24162SOL    HW177333   9.091   3.042   4.862
24162SOL    HW277334   9.000   2.963   4.752
24163SOL     OW77335   8.363   1.951   5.126
24163SOL    HW177336   8.388   1.931   5.031
24163SOL    HW277337   8.435   2.007   5.168
24164SOL     OW77338   8.428   2.978   5.443
24164SOL    HW177339   8.329   2.984   5.453
24164SOL    HW277340   8.451   2.898   5.387
24165SOL     OW77341   8.153   2.912   4.092
24165SOL    HW177342   8.139   2.919   4.191
24165SOL    HW277343   8.237   2.861   4.074
24166SOL     OW77344   7.858   2.675   4.975
24166SOL    HW177345   7.944   2.687   5.025
24166SOL    HW277346   7.816   2.588   5.002
24167SOL     OW77347   8.722   2.248   4.986
24167SOL    HW177348   8.743   2.322   5.050
24167SOL    HW277349   8.633   2.265   4.943
24168SOL     OW77350   7.512   3.426   5.055
24168SOL    HW177351   7.466   3.508   5.021
24168SOL    HW277352   7.610   3.445   5.064
24169SOL     OW77353   7.815   2.962   4.225
24169SOL    HW177354   7.808   3.045   4.169
24169SOL    HW277355   7.819   2.882   4.165
24170SOL     OW77356   8.014   2.399   4.589
24170SOL    HW177357   8.026   2.465   4.515
24170SOL    HW277358   8.060   2.433   4.672
24171SOL     OW77359   8.720   3.307   4.866
24171SOL    HW177360   8.767   3.320   4.953
24171SOL    HW277361   8.654   3.233   4.875
24172SOL     OW77362   9.030   2.501   4.196
24172SOL    HW177363   8.999   2.562   4.269
24172SOL    HW277364   9.080   2.553   4.127
24173SOL     OW77365   7.802   3.372   5.053
24173SOL    HW177366   7.781   3.328   4.966
24173SOL    HW277367   7.899   3.398   5.056
24174SOL     OW77368   7.850   2.613   5.322
24174SOL    HW177369   7.918   2.668   5.275
24174SOL    HW277370   7.890   2.525   5.349
24175SOL     OW77371   9.035   2.641   5.394
24175SOL    HW177372   8.943   2.679   5.389
24175SOL    HW277373   9.095   2.688   5.329
24176SOL     OW77374   8.461   1.967   5.494
24176SOL    HW177375   8.467   2.052   5.442
24176SOL    HW277376   8.493   1.891   5.437
24177SOL     OW77377   7.952   1.912   5.464
24177SOL    HW177378   7.910   1.855   5.394
24177SOL    HW277379   7.886   1.981   5.496
24178SOL     OW77380   8.021   2.732   4.753
24178SOL    HW177381   8.065   2.821   4.744
24178SOL    HW277382   7.958   2.732   4.830
24179SOL     OW77383   8.808   2.724   4.769
24179SOL    HW177384   8.733   2.724   4.703
24179SOL    HW277385   8.845   2.632   4.778
24180SOL     OW77386   7.755   2.075   4.955
24180SOL    HW177387   7.732   2.112   5.045
24180SOL    HW277388   7.725   1.980   4.949
24181SOL     OW77389   7.485   3.172   5.006
24181SOL    HW177390   7.538   3.123   5.074
24181SOL    HW277391   7.507   3.270   5.011
24182SOL     OW77392   8.180   2.496   4.788
24182SOL    HW177393   8.239   2.470   4.712
24182SOL    HW277394   8.152   2.592   4.777
24183SOL     OW77395   9.176   2.797   5.578
24183SOL    HW177396   9.130   2.790   5.489
24183SOL    HW277397   9.114   2.841   5.644
24184SOL     OW77398   7.755   1.925   4.342
24184SOL    HW177399   7.744   2.019   4.375
24184SOL    HW277400   7.750   1.862   4.419
24185SOL     OW77401   9.070   2.229   4.098
24185SOL    HW177402   9.072   2.153   4.162
24185SOL    HW277403   9.022   2.306   4.138
24186SOL     OW77404   8.471   2.628   4.690
24186SOL    HW177405   8.486   2.649   4.786
24186SOL    HW277406   8.441   2.533   4.681
24187SOL     OW77407   8.428   3.435   5.424
24187SOL    HW177408   8.408   3.479   5.336
24187SOL    HW277409   8.467   3.344   5.408
24188SOL     OW77410   9.307   3.380   5.329
24188SOL    HW177411   9.321   3.407   5.234
24188SOL    HW277412   9.390   3.402   5.382
24189SOL     OW77413   7.798   2.760   5.528
24189SOL    HW177414   7.874   2.804   5.576
24189SOL    HW277415   7.833   2.713   5.446
24190SOL     OW77416   8.988   2.136   3.849
24190SOL    HW177417   8.927   2.061   3.872
24190SOL    HW277418   9.010   2.188   3.932
24191SOL     OW77419   7.767   2.672   4.673
24191SOL    HW177420   7.860   2.708   4.678
24191SOL    HW277421   7.761   2.587   4.725
24192SOL     OW77422   7.787   2.371   4.730
24192SOL    HW177423   7.735   2.288   4.713
24192SOL    HW277424   7.864   2.376   4.666
24193SOL     OW77425   8.608   2.069   5.201
24193SOL    HW177426   8.608   2.133   5.278
24193SOL    HW277427   8.636   2.117   5.118
24194SOL     OW77428   7.456   3.188   3.924
24194SOL    HW177429   7.363   3.209   3.893
24194SOL    HW277430   7.466   3.089   3.937
24195SOL     OW77431   7.536   3.663   4.651
24195SOL    HW177432   7.494   3.577   4.624
24195SOL    HW277433   7.630   3.666   4.617
24196SOL     OW77434   7.952   3.430   4.634
24196SOL    HW177435   8.018   3.504   4.643
24196SOL    HW277436   7.996   3.351   4.592
24197SOL     OW77437   8.450   2.658   4.962
24197SOL    HW177438   8.491   2.626   5.048
24197SOL    HW277439   8.354   2.631   4.959
24198SOL     OW77440   7.488   2.406   4.838
24198SOL    HW177441   7.573   2.373   4.797
24198SOL    HW277442   7.501   2.421   4.936
24199SOL     OW77443   7.637   2.382   5.446
24199SOL    HW177444   7.696   2.342   5.376
24199SOL    HW277445   7.579   2.453   5.405
24200SOL     OW77446   8.817   2.812   5.384
24200SOL    HW177447   8.856   2.901   5.404
24200SOL    HW277448   8.827   2.792   5.287
24201SOL     OW77449   9.105   2.466   4.930
24201SOL    HW177450   9.067   2.397   4.992
24201SOL    HW277451   9.187   2.430   4.886
24202SOL     OW77452   7.700   3.426   5.468
24202SOL    HW177453   7.670   3.483   5.544
24202SOL    HW277454   7.693   3.329   5.494
24203SOL     OW77455   8.119   2.326   4.993
24203SOL    HW177456   8.085   2.237   4.963
24203SOL    HW277457   8.145   2.380   4.913
24204SOL     OW77458   8.378   3.540   5.189
24204SOL    HW177459   8.354   3.522   5.094
24204SOL    HW277460   8.408   3.634   5.199
24205SOL     OW77461   7.607   2.999   5.190
24205SOL    HW177462   7.629   2.938   5.266
24205SOL    HW277463   7.617   2.950   5.104
24206SOL     OW77464   8.795   2.921   4.958
24206SOL    HW177465   8.819   2.858   4.884
24206SOL    HW277466   8.705   2.961   4.940
24207SOL     OW77467   8.750   2.717   4.033
24207SOL    HW177468   8.664   2.686   4.075
24207SOL    HW277469   8.746   2.703   3.934
24208SOL     OW77470   9.207   3.609   4.878
24208SOL    HW177471   9.268   3.639   4.805
24208SOL    HW277472   9.169   3.520   4.856
24209SOL     OW77473   8.700   3.593   4.852
24209SOL    HW177474   8.784   3.598   4.798
24209SOL    HW277475   8.677   3.497   4.870
24210SOL     OW77476   7.531   3.120   4.746
24210SOL    HW177477   7.526   3.119   4.846
24210SOL    HW277478   7.448   3.079   4.708
24211SOL     OW77479   8.136   3.524   5.440
24211SOL    HW177480   8.080   3.605   5.449
24211SOL    HW277481   8.188   3.528   5.354
24212SOL     OW77482   9.174   1.997   4.247
24212SOL    HW177483   9.247   1.980   4.180
24212SOL    HW277484   9.143   1.910   4.285
24213SOL     OW77485   8.836   3.435   4.201
24213SOL    HW177486   8.903   3.447   4.127
24213SOL    HW277487   8.796   3.524   4.224
24214SOL     OW77488   7.578   3.656   5.575
24214SOL    HW177489   7.537   3.582   5.628
24214SOL    HW277490   7.642   3.707   5.633
24215SOL     OW77491   8.728   2.789   4.396
24215SOL    HW177492   8.788   2.708   4.398
24215SOL    HW277493   8.768   2.858   4.336
24216SOL     OW77494   8.278   3.135   5.146
24216SOL    HW177495   8.273   3.168   5.241
24216SOL    HW277496   8.192   3.154   5.100
24217SOL     OW77497   8.120   3.478   3.878
24217SOL    HW177498   8.129   3.488   3.779
24217SOL    HW277499   8.080   3.389   3.899
24218SOL     OW77500   9.098   3.582   5.118
24218SOL    HW177501   9.151   3.592   5.034
24218SOL    HW277502   9.071   3.672   5.152
24219SOL     OW77503   7.711   2.188   4.444
24219SOL    HW177504   7.632   2.239   4.410
24219SOL    HW277505   7.702   2.173   4.542
24220SOL     OW77506   8.642   3.474   3.755
24220SOL    HW177507   8.648   3.381   3.792
24220SOL    HW277508   8.583   3.474   3.675
24221SOL     OW77509   8.270   2.864   5.096
24221SOL    HW177510   8.310   2.863   5.004
24221SOL    HW277511   8.280   2.956   5.136
24222SOL     OW77512   8.364   2.772   4.015
24222SOL    HW177513   8.427   2.810   3.947
24222SOL    HW277514   8.404   2.689   4.054
24223SOL     OW77515   8.952   3.469   3.768
24223SOL    HW177516   8.860   3.506   3.775
24223SOL    HW277517   8.990   3.489   3.678
24224SOL     OW77518   7.820   3.150   5.214
24224SOL    HW177519   7.807   3.243   5.180
24224SOL    HW277520   7.736   3.098   5.201
24225SOL     OW77521   9.062   3.154   5.013
24225SOL    HW177522   9.122   3.157   5.093
24225SOL    HW277523   8.987   3.218   5.026
24226SOL     OW77524   8.487   2.960   4.420
24226SOL    HW177525   8.417   2.913   4.474
24226SOL    HW277526   8.546   2.892   4.377
24227SOL     OW77527   8.462   2.098   4.695
24227SOL    HW177528   8.454   2.062   4.602
24227SOL    HW277529   8.460   2.022   4.760
24228SOL     OW77530   8.038   3.349   4.215
24228SOL    HW177531   8.080   3.291   4.145
24228SOL    HW277532   7.994   3.428   4.171
24229SOL     OW77533   7.703   3.210   4.014
24229SOL    HW177534   7.607   3.211   3.987
24229SOL    HW277535   7.715   3.263   4.098
24230SOL     OW77536   7.553   2.875   5.450
24230SOL    HW177537   7.476   2.842   5.504
24230SOL    HW277538   7.638   2.845   5.492
24231SOL     OW77539   8.120   2.065   5.213
24231SOL    HW177540   8.210   2.049   5.173
24231SOL    HW277541   8.128   2.070   5.312
24232SOL     OW77542   7.523   2.207   3.757
24232SOL    HW177543   7.431   2.179   3.728
24232SOL    HW277544   7.554   2.284   3.701
24233SOL     OW77545   8.888   2.718   5.122
24233SOL    HW177546   8.831   2.770   5.059
24233SOL    HW277547   8.984   2.730   5.098
24234SOL     OW77548   7.520   2.028   4.042
24234SOL    HW177549   7.503   2.111   3.988
24234SOL    HW277550   7.610   1.991   4.020
24235SOL     OW77551   8.631   3.197   3.843
24235SOL    HW177552   8.532   3.186   3.845
24235SOL    HW277553   8.665   3.212   3.936
24236SOL     OW77554   8.941   3.629   4.683
24236SOL    HW177555   8.974   3.693   4.614
24236SOL    HW277556   9.007   3.623   4.758
24237SOL     OW77557   8.898   3.082   5.357
24237SOL    HW177558   8.889   3.072   5.456
24237SOL    HW277559   8.994   3.075   5.331
24238SOL     OW77560   7.838   3.603   5.284
24238SOL    HW177561   7.747   3.644   5.282
24238SOL    HW277562   7.831   3.509   5.316
24239SOL     OW77563   9.122   2.745   4.978
24239SOL    HW177564   9.095   2.656   4.941
24239SOL    HW277565   9.123   2.813   4.905
24240SOL     OW77566   8.673   2.187   4.173
24240SOL    HW177567   8.738   2.113   4.162
24240SOL    HW277568   8.693   2.237   4.257
24241SOL     OW77569   8.042   2.607   4.376
24241SOL    HW177570   8.092   2.692   4.357
24241SOL    HW277571   7.954   2.609   4.328
24242SOL     OW77572   9.178   2.796   5.241
24242SOL    HW177573   9.216   2.887   5.256
24242SOL    HW277574   9.170   2.779   5.142
24243SOL     OW77575   8.307   3.236   3.740
24243SOL    HW177576   8.261   3.251   3.828
24243SOL    HW277577   8.351   3.321   3.710
24244SOL     OW77578   8.109   3.652   4.677
24244SOL    HW177579   8.063   3.740   4.664
24244SOL    HW277580   8.208   3.664   4.670
24245SOL     OW77581   8.307   2.818   4.585
24245SOL    HW177582   8.361   2.749   4.633
24245SOL    HW277583   8.275   2.887   4.651
24246SOL     OW77584   8.531   2.846   3.811
24246SOL    HW177585   8.508   2.899   3.729
24246SOL    HW277586   8.612   2.790   3.792
24247SOL     OW77587   9.309   3.431   4.575
24247SOL    HW177588   9.238   3.419   4.505
24247SOL    HW277589   9.310   3.352   4.635
24248SOL     OW77590   7.669   3.176   5.568
24248SOL    HW177591   7.604   3.103   5.547
24248SOL    HW277592   7.673   3.190   5.666
24249SOL     OW77593   7.527   3.102   4.377
24249SOL    HW177594   7.526   3.055   4.465
24249SOL    HW277595   7.609   3.074   4.326
24250SOL     OW77596   8.120   3.253   5.348
24250SOL    HW177597   8.042   3.203   5.386
24250SOL    HW277598   8.117   3.348   5.379
24251SOL     OW77599   9.153   3.349   4.828
24251SOL    HW177600   9.060   3.324   4.801
24251SOL    HW277601   9.179   3.299   4.910
24252SOL     OW77602   7.765   2.409   5.004
24252SOL    HW177603   7.803   2.350   5.076
24252SOL    HW277604   7.805   2.383   4.916
24253SOL     OW77605   8.872   2.076   4.836
24253SOL    HW177606   8.924   2.011   4.891
24253SOL    HW277607   8.823   2.139   4.897
24254SOL     OW77608   8.449   1.896   4.878
24254SOL    HW177609   8.386   1.824   4.847
24254SOL    HW277610   8.542   1.860   4.878
24255SOL     OW77611   8.066   3.429   5.008
24255SOL    HW177612   8.061   3.511   5.065
24255SOL    HW277613   8.155   3.426   4.963
24256SOL     OW77614   8.800   1.914   3.892
24256SOL    HW177615   8.835   1.873   3.808
24256SOL    HW277616   8.710   1.876   3.912
24257SOL     OW77617   8.748   2.315   4.415
24257SOL    HW177618   8.689   2.395   4.419
24257SOL    HW277619   8.763   2.280   4.508
24258SOL     OW77620   9.041   2.083   4.606
24258SOL    HW177621   8.957   2.082   4.660
24258SOL    HW277622   9.043   2.166   4.550
24259SOL     OW77623   7.487   2.939   4.024
24259SOL    HW177624   7.586   2.928   4.015
24259SOL    HW277625   7.447   2.853   4.056
24260SOL     OW77626   8.323   3.508   4.061
24260SOL    HW177627   8.246   3.473   4.007
24260SOL    HW277628   8.291   3.579   4.123
24261SOL     OW77629   7.678   2.490   5.699
24261SOL    HW177630   7.585   2.488   5.736
24261SOL    HW277631   7.679   2.451   5.607
24262SOL     OW77632   7.673   2.137   6.582
24262SOL    HW177633   7.708   2.120   6.674
24262SOL    HW277634   7.585   2.092   6.570
24263SOL     OW77635   7.467   2.230   6.233
24263SOL    HW177636   7.385   2.273   6.272
24263SOL    HW277637   7.439   2.157   6.170
24264SOL     OW77638   9.003   3.373   6.289
24264SOL    HW177639   8.946   3.357   6.370
24264SOL    HW277640   8.944   3.383   6.209
24265SOL     OW77641   8.583   2.565   6.303
24265SOL    HW177642   8.640   2.643   6.278
24265SOL    HW277643   8.523   2.591   6.379
24266SOL     OW77644   8.216   3.006   6.609
24266SOL    HW177645   8.138   3.023   6.669
24266SOL    HW277646   8.250   3.093   6.573
24267SOL     OW77647   8.298   2.660   7.409
24267SOL    HW177648   8.294   2.736   7.474
24267SOL    HW277649   8.320   2.696   7.318
24268SOL     OW77650   8.133   2.874   6.251
24268SOL    HW177651   8.202   2.858   6.321
24268SOL    HW277652   8.060   2.931   6.289
24269SOL     OW77653   8.134   3.023   7.389
24269SOL    HW177654   8.194   3.102   7.403
24269SOL    HW277655   8.048   3.054   7.348
24270SOL     OW77656   7.783   3.297   6.647
24270SOL    HW177657   7.705   3.266   6.594
24270SOL    HW277658   7.841   3.355   6.590
24271SOL     OW77659   8.908   3.367   6.925
24271SOL    HW177660   8.932   3.461   6.951
24271SOL    HW277661   8.892   3.313   7.007
24272SOL     OW77662   7.886   2.254   7.085
24272SOL    HW177663   7.968   2.198   7.094
24272SOL    HW277664   7.805   2.196   7.089
24273SOL     OW77665   9.051   2.309   6.323
24273SOL    HW177666   8.977   2.355   6.273
24273SOL    HW277667   9.102   2.377   6.376
24274SOL     OW77668   7.679   3.575   6.069
24274SOL    HW177669   7.713   3.652   6.123
24274SOL    HW277670   7.723   3.575   5.979
24275SOL     OW77671   8.575   3.203   7.276
24275SOL    HW177672   8.622   3.203   7.364
24275SOL    HW277673   8.527   3.116   7.265
24276SOL     OW77674   7.678   3.296   6.124
24276SOL    HW177675   7.652   3.392   6.124
24276SOL    HW277676   7.607   3.242   6.169
24277SOL     OW77677   7.688   2.953   6.472
24277SOL    HW177678   7.702   2.869   6.524
24277SOL    HW277679   7.633   3.017   6.527
24278SOL     OW77680   8.068   3.648   7.025
24278SOL    HW177681   7.976   3.631   7.060
24278SOL    HW277682   8.096   3.740   7.051
24279SOL     OW77683   8.054   2.826   5.709
24279SOL    HW177684   8.061   2.910   5.655
24279SOL    HW277685   8.100   2.839   5.797
24280SOL     OW77686   9.042   1.976   7.066
24280SOL    HW177687   9.024   2.043   6.994
24280SOL    HW277688   9.039   2.022   7.155
24281SOL     OW77689   7.570   2.505   6.149
24281SOL    HW177690   7.525   2.417   6.166
24281SOL    HW277691   7.569   2.559   6.233
24282SOL     OW77692   9.290   3.629   5.945
24282SOL    HW177693   9.344   3.600   6.025
24282SOL    HW277694   9.320   3.719   5.916
24283SOL     OW77695   7.475   3.458   5.703
24283SOL    HW177696   7.456   3.362   5.724
24283SOL    HW277697   7.442   3.516   5.778
24284SOL     OW77698   9.137   2.784   6.198
24284SOL    HW177699   9.232   2.755   6.206
24284SOL    HW277700   9.129   2.849   6.123
24285SOL     OW77701   9.089   2.970   6.018
24285SOL    HW177702   9.175   2.972   5.966
24285SOL    HW277703   9.103   3.017   6.106
24286SOL     OW77704   7.561   2.599   7.183
24286SOL    HW177705   7.649   2.586   7.228
24286SOL    HW277706   7.548   2.696   7.161
24287SOL     OW77707   8.061   3.227   6.312
24287SOL    HW177708   8.012   3.140   6.321
24287SOL    HW277709   8.038   3.270   6.225
24288SOL     OW77710   8.741   3.090   7.009
24288SOL    HW177711   8.778   3.017   6.951
24288SOL    HW277712   8.793   3.095   7.094
24289SOL     OW77713   8.257   1.866   6.088
24289SOL    HW177714   8.297   1.957   6.079
24289SOL    HW277715   8.157   1.874   6.094
24290SOL     OW77716   7.645   2.838   6.850
24290SOL    HW177717   7.734   2.793   6.836
24290SOL    HW277718   7.572   2.773   6.831
24291SOL     OW77719   8.973   2.861   5.776
24291SOL    HW177720   8.910   2.785   5.789
24291SOL    HW277721   9.021   2.879   5.862
24292SOL     OW77722   8.635   3.654   7.202
24292SOL    HW177723   8.659   3.714   7.126
24292SOL    HW277724   8.642   3.559   7.172
24293SOL     OW77725   7.765   2.113   7.387
24293SOL    HW177726   7.836   2.184   7.393
24293SOL    HW277727   7.677   2.152   7.415
24294SOL     OW77728   8.914   3.279   6.539
24294SOL    HW177729   8.855   3.285   6.619
24294SOL    HW277730   8.899   3.191   6.493
24295SOL     OW77731   9.115   3.576   6.158
24295SOL    HW177732   9.074   3.553   6.070
24295SOL    HW277733   9.097   3.502   6.223
24296SOL     OW77734   8.046   2.591   5.856
24296SOL    HW177735   8.070   2.660   5.788
24296SOL    HW277736   7.968   2.624   5.910
24297SOL     OW77737   8.729   2.207   6.530
24297SOL    HW177738   8.643   2.157   6.517
24297SOL    HW277739   8.791   2.153   6.586
24298SOL     OW77740   9.024   3.524   5.893
24298SOL    HW177741   9.113   3.570   5.896
24298SOL    HW277742   9.003   3.500   5.798
24299SOL     OW77743   8.255   2.467   7.051
24299SOL    HW177744   8.208   2.464   7.140
24299SOL    HW277745   8.204   2.412   6.985
24300SOL     OW77746   8.842   2.331   7.260
24300SOL    HW177747   8.822   2.374   7.348
24300SOL    HW277748   8.920   2.269   7.269
24301SOL     OW77749   8.421   2.752   7.158
24301SOL    HW177750   8.467   2.668   7.129
24301SOL    HW277751   8.365   2.786   7.083
24302SOL     OW77752   8.439   2.272   6.828
24302SOL    HW177753   8.362   2.306   6.882
24302SOL    HW277754   8.405   2.221   6.749
24303SOL     OW77755   8.489   2.563   6.015
24303SOL    HW177756   8.515   2.559   6.111
24303SOL    HW277757   8.404   2.512   6.001
24304SOL     OW77758   7.524   2.673   6.375
24304SOL    HW177759   7.623   2.661   6.384
24304SOL    HW277760   7.500   2.768   6.396
24305SOL     OW77761   7.578   3.683   7.157
24305SOL    HW177762   7.568   3.668   7.256
24305SOL    HW277763   7.492   3.719   7.121
24306SOL     OW77764   9.167   2.447   7.417
24306SOL    HW177765   9.141   2.536   7.381
24306SOL    HW277766   9.165   2.379   7.344
24307SOL     OW77767   8.810   3.006   6.131
24307SOL    HW177768   8.893   2.977   6.083
24307SOL    HW277769   8.761   3.073   6.075
24308SOL     OW77770   7.998   2.058   6.471
24308SOL    HW177771   7.993   2.053   6.571
24308SOL    HW277772   8.000   2.154   6.442
24309SOL     OW77773   8.456   3.318   6.063
24309SOL    HW177774   8.410   3.390   6.011
24309SOL    HW277775   8.452   3.338   6.161
24310SOL     OW77776   7.799   3.663   6.439
24310SOL    HW177777   7.849   3.577   6.445
24310SOL    HW277778   7.864   3.740   6.436
24311SOL     OW77779   9.243   2.928   6.459
24311SOL    HW177780   9.181   2.913   6.383
24311SOL    HW277781   9.191   2.939   6.544
24312SOL     OW77782   8.675   3.412   7.092
24312SOL    HW177783   8.681   3.335   7.156
24312SOL    HW277784   8.623   3.386   7.012
24313SOL     OW77785   7.769   2.805   5.828
24313SOL    HW177786   7.851   2.844   5.786
24313SOL    HW277787   7.742   2.723   5.779
24314SOL     OW77788   8.906   2.597   6.314
24314SOL    HW177789   8.901   2.532   6.389
24314SOL    HW277790   8.986   2.656   6.327
24315SOL     OW77791   7.909   3.128   7.313
24315SOL    HW177792   7.859   3.129   7.227
24315SOL    HW277793   7.846   3.110   7.389
24316SOL     OW77794   8.559   3.638   5.823
24316SOL    HW177795   8.499   3.576   5.873
24316SOL    HW277796   8.590   3.594   5.738
24317SOL     OW77797   7.650   2.147   7.084
24317SOL    HW177798   7.570   2.207   7.071
24317SOL    HW277799   7.640   2.098   7.170
24318SOL     OW77800   9.080   3.239   5.667
24318SOL    HW177801   9.048   3.333   5.657
24318SOL    HW277802   9.004   3.176   5.655
24319SOL     OW77803   7.912   3.605   5.909
24319SOL    HW177804   7.945   3.644   5.995
24319SOL    HW277805   7.988   3.598   5.844
24320SOL     OW77806   7.697   3.647   6.827
24320SOL    HW177807   7.754   3.582   6.877
24320SOL    HW277808   7.681   3.614   6.734
24321SOL     OW77809   8.388   3.560   6.490
24321SOL    HW177810   8.468   3.503   6.511
24321SOL    HW277811   8.339   3.520   6.413
24322SOL     OW77812   7.830   2.562   6.066
24322SOL    HW177813   7.875   2.472   6.063
24322SOL    HW277814   7.736   2.551   6.099
24323SOL     OW77815   8.995   2.084   7.315
24323SOL    HW177816   8.990   2.121   7.407
24323SOL    HW277817   8.923   2.015   7.303
24324SOL     OW77818   8.062   1.984   5.703
24324SOL    HW177819   8.160   1.962   5.710
24324SOL    HW277820   8.031   1.967   5.610
24325SOL     OW77821   8.229   2.126   7.335
24325SOL    HW177822   8.296   2.065   7.378
24325SOL    HW277823   8.156   2.145   7.400
24326SOL     OW77824   8.336   3.376   6.781
24326SOL    HW177825   8.313   3.351   6.687
24326SOL    HW277826   8.397   3.307   6.820
24327SOL     OW77827   8.799   2.452   7.019
24327SOL    HW177828   8.827   2.409   7.104
24327SOL    HW277829   8.824   2.548   7.020
24328SOL     OW77830   8.251   3.264   6.510
24328SOL    HW177831   8.341   3.278   6.468
24328SOL    HW277832   8.180   3.266   6.439
24329SOL     OW77833   8.370   2.365   6.485
24329SOL    HW177834   8.345   2.356   6.389
24329SOL    HW277835   8.418   2.283   6.516
24330SOL     OW77836   7.987   1.926   6.098
24330SOL    HW177837   7.906   1.927   6.156
24330SOL    HW277838   7.990   2.009   6.043
24331SOL     OW77839   8.882   3.050   5.627
24331SOL    HW177840   8.914   2.974   5.684
24331SOL    HW277841   8.790   3.077   5.657
24332SOL     OW77842   8.524   2.545   7.050
24332SOL    HW177843   8.444   2.484   7.053
24332SOL    HW277844   8.605   2.492   7.026
24333SOL     OW77845   8.675   3.432   6.379
24333SOL    HW177846   8.696   3.506   6.314
24333SOL    HW277847   8.743   3.432   6.452
24334SOL     OW77848   7.907   3.014   6.327
24334SOL    HW177849   7.836   2.987   6.392
24334SOL    HW277850   7.881   2.986   6.234
24335SOL     OW77851   8.719   3.659   6.177
24335SOL    HW177852   8.763   3.723   6.113
24335SOL    HW277853   8.669   3.711   6.247
24336SOL     OW77854   7.526   2.418   6.972
24336SOL    HW177855   7.618   2.417   6.931
24336SOL    HW277856   7.520   2.492   7.039
24337SOL     OW77857   8.009   2.084   6.733
24337SOL    HW177858   8.047   2.000   6.770
24337SOL    HW277859   7.921   2.103   6.777
24338SOL     OW77860   8.314   2.316   6.228
24338SOL    HW177861   8.282   2.388   6.166
24338SOL    HW277862   8.338   2.235   6.175
24339SOL     OW77863   8.465   1.901   6.339
24339SOL    HW177864   8.393   1.906   6.270
24339SOL    HW277865   8.441   1.832   6.408
24340SOL     OW77866   8.877   3.035   6.453
24340SOL    HW177867   8.822   2.951   6.446
24340SOL    HW277868   8.903   3.064   6.361
24341SOL     OW77869   8.914   2.452   6.578
24341SOL    HW177870   8.884   2.357   6.585
24341SOL    HW277871   8.987   2.468   6.644
24342SOL     OW77872   9.305   2.695   5.963
24342SOL    HW177873   9.347   2.631   6.027
24342SOL    HW277874   9.267   2.644   5.885
24343SOL     OW77875   7.936   3.247   5.760
24343SOL    HW177876   7.849   3.232   5.807
24343SOL    HW277877   7.919   3.273   5.665
24344SOL     OW77878   9.112   3.142   6.243
24344SOL    HW177879   9.211   3.150   6.257
24344SOL    HW277880   9.067   3.226   6.274
24345SOL     OW77881   7.975   2.118   5.914
24345SOL    HW177882   8.002   2.059   5.839
24345SOL    HW277883   7.975   2.213   5.883
24346SOL     OW77884   9.202   3.085   7.174
24346SOL    HW177885   9.293   3.046   7.161
24346SOL    HW277886   9.210   3.181   7.198
24347SOL     OW77887   8.512   3.209   6.926
24347SOL    HW177888   8.432   3.186   6.981
24347SOL    HW277889   8.595   3.183   6.975
24348SOL     OW77890   9.040   3.491   7.211
24348SOL    HW177891   9.067   3.525   7.121
24348SOL    HW277892   9.119   3.453   7.257
24349SOL     OW77893   8.559   3.057   6.686
24349SOL    HW177894   8.519   3.101   6.767
24349SOL    HW277895   8.518   3.094   6.603
24350SOL     OW77896   9.086   2.961   6.665
24350SOL    HW177897   9.091   3.042   6.724
24350SOL    HW277898   9.000   2.963   6.614
24351SOL     OW77899   8.363   1.951   6.988
24351SOL    HW177900   8.388   1.931   6.893
24351SOL    HW277901   8.435   2.007   7.030
24352SOL     OW77902   8.428   2.978   7.305
24352SOL    HW177903   8.329   2.984   7.315
24352SOL    HW277904   8.451   2.898   7.249
24353SOL     OW77905   8.153   2.912   5.954
24353SOL    HW177906   8.139   2.919   6.053
24353SOL    HW277907   8.237   2.861   5.936
24354SOL     OW77908   7.858   2.675   6.837
24354SOL    HW177909   7.944   2.687   6.887
24354SOL    HW277910   7.816   2.588   6.864
24355SOL     OW77911   8.722   2.248   6.848
24355SOL    HW177912   8.743   2.322   6.912
24355SOL    HW277913   8.633   2.265   6.805
24356SOL     OW77914   7.512   3.426   6.917
24356SOL    HW177915   7.466   3.508   6.883
24356SOL    HW277916   7.610   3.445   6.926
24357SOL     OW77917   7.815   2.962   6.087
24357SOL    HW177918   7.808   3.045   6.031
24357SOL    HW277919   7.819   2.882   6.027
24358SOL     OW77920   8.014   2.399   6.451
24358SOL    HW177921   8.026   2.465   6.377
24358SOL    HW277922   8.060   2.433   6.534
24359SOL     OW77923   8.700   3.210   5.974
24359SOL    HW177924   8.750   3.287   6.014
24359SOL    HW277925   8.605   3.212   6.006
24360SOL     OW77926   8.720   3.307   6.728
24360SOL    HW177927   8.767   3.320   6.815
24360SOL    HW277928   8.654   3.233   6.737
24361SOL     OW77929   9.030   2.501   6.058
24361SOL    HW177930   8.999   2.562   6.131
24361SOL    HW277931   9.080   2.553   5.989
24362SOL     OW77932   7.802   3.372   6.915
24362SOL    HW177933   7.781   3.328   6.828
24362SOL    HW277934   7.899   3.398   6.918
24363SOL     OW77935   7.850   2.613   7.184
24363SOL    HW177936   7.918   2.668   7.137
24363SOL    HW277937   7.890   2.525   7.211
24364SOL     OW77938   9.035   2.641   7.256
24364SOL    HW177939   8.943   2.679   7.251
24364SOL    HW277940   9.095   2.688   7.191
24365SOL     OW77941   8.461   1.967   7.356
24365SOL    HW177942   8.467   2.052   7.304
24365SOL    HW277943   8.493   1.891   7.299
24366SOL     OW77944   7.952   1.912   7.326
24366SOL    HW177945   7.910   1.855   7.256
24366SOL    HW277946   7.886   1.981   7.358
24367SOL     OW77947   8.021   2.732   6.615
24367SOL    HW177948   8.065   2.821   6.606
24367SOL    HW277949   7.958   2.732   6.692
24368SOL     OW77950   8.808   2.724   6.631
24368SOL    HW177951   8.733   2.724   6.565
24368SOL    HW277952   8.845   2.632   6.640
24369SOL     OW77953   7.755   2.075   6.817
24369SOL    HW177954   7.732   2.112   6.907
24369SOL    HW277955   7.725   1.980   6.811
24370SOL     OW77956   7.485   3.172   6.868
24370SOL    HW177957   7.538   3.123   6.936
24370SOL    HW277958   7.507   3.270   6.873
24371SOL     OW77959   8.180   2.496   6.650
24371SOL    HW177960   8.239   2.470   6.574
24371SOL    HW277961   8.152   2.592   6.639
24372SOL     OW77962   9.176   2.797   7.440
24372SOL    HW177963   9.130   2.790   7.351
24372SOL    HW277964   9.114   2.841   7.506
24373SOL     OW77965   7.755   1.925   6.204
24373SOL    HW177966   7.744   2.019   6.237
24373SOL    HW277967   7.750   1.862   6.281
24374SOL     OW77968   8.471   2.628   6.552
24374SOL    HW177969   8.486   2.649   6.648
24374SOL    HW277970   8.441   2.533   6.543
24375SOL     OW77971   8.428   3.435   7.286
24375SOL    HW177972   8.408   3.479   7.198
24375SOL    HW277973   8.467   3.344   7.270
24376SOL     OW77974   9.307   3.380   7.191
24376SOL    HW177975   9.321   3.407   7.096
24376SOL    HW277976   9.390   3.402   7.244
24377SOL     OW77977   7.798   2.760   7.390
24377SOL    HW177978   7.874   2.804   7.438
24377SOL    HW277979   7.833   2.713   7.308
24378SOL     OW77980   8.751   2.700   5.628
24378SOL    HW177981   8.785   2.607   5.643
24378SOL    HW277982   8.769   2.727   5.533
24379SOL     OW77983   8.516   3.195   6.435
24379SOL    HW177984   8.523   3.111   6.380
24379SOL    HW277985   8.578   3.264   6.399
24380SOL     OW77986   7.767   2.672   6.535
24380SOL    HW177987   7.860   2.708   6.540
24380SOL    HW277988   7.761   2.587   6.587
24381SOL     OW77989   7.787   2.371   6.592
24381SOL    HW177990   7.735   2.288   6.575
24381SOL    HW277991   7.864   2.376   6.528
24382SOL     OW77992   8.586   2.242   7.264
24382SOL    HW177993   8.541   2.305   7.328
24382SOL    HW277994   8.679   2.273   7.247
24383SOL     OW77995   8.608   2.069   7.063
24383SOL    HW177996   8.608   2.133   7.140
24383SOL    HW277997   8.636   2.117   6.980
24384SOL     OW77998   7.456   3.188   5.786
24384SOL    HW177999   7.363   3.209   5.755
24384SOL    HW278000   7.466   3.089   5.799
24385SOL     OW78001   7.536   3.663   6.513
24385SOL    HW178002   7.494   3.577   6.486
24385SOL    HW278003   7.630   3.666   6.479
24386SOL     OW78004   7.952   3.430   6.496
24386SOL    HW178005   8.018   3.504   6.505
24386SOL    HW278006   7.996   3.351   6.454
24387SOL     OW78007   8.450   2.658   6.824
24387SOL    HW178008   8.491   2.626   6.910
24387SOL    HW278009   8.354   2.631   6.821
24388SOL     OW78010   7.488   2.406   6.700
24388SOL    HW178011   7.573   2.373   6.659
24388SOL    HW278012   7.501   2.421   6.798
24389SOL     OW78013   7.637   2.382   7.308
24389SOL    HW178014   7.696   2.342   7.238
24389SOL    HW278015   7.579   2.453   7.267
24390SOL     OW78016   8.817   2.812   7.246
24390SOL    HW178017   8.856   2.901   7.266
24390SOL    HW278018   8.827   2.792   7.149
24391SOL     OW78019   8.263   2.434   5.911
24391SOL    HW178020   8.270   2.345   5.865
24391SOL    HW278021   8.169   2.468   5.903
24392SOL     OW78022   9.105   2.466   6.792
24392SOL    HW178023   9.067   2.397   6.854
24392SOL    HW278024   9.187   2.430   6.748
24393SOL     OW78025   7.700   3.426   7.330
24393SOL    HW178026   7.670   3.483   7.406
24393SOL    HW278027   7.693   3.329   7.356
24394SOL     OW78028   8.119   2.326   6.855
24394SOL    HW178029   8.085   2.237   6.825
24394SOL    HW278030   8.145   2.380   6.775
24395SOL     OW78031   8.378   3.540   7.051
24395SOL    HW178032   8.354   3.522   6.956
24395SOL    HW278033   8.408   3.634   7.061
24396SOL     OW78034   7.921   2.362   5.777
24396SOL    HW178035   7.982   2.442   5.781
24396SOL    HW278036   7.826   2.393   5.784
24397SOL     OW78037   7.607   2.999   7.052
24397SOL    HW178038   7.629   2.938   7.128
24397SOL    HW278039   7.617   2.950   6.966
24398SOL     OW78040   8.795   2.921   6.820
24398SOL    HW178041   8.819   2.858   6.746
24398SOL    HW278042   8.705   2.961   6.802
24399SOL     OW78043   8.750   2.717   5.895
24399SOL    HW178044   8.664   2.686   5.937
24399SOL    HW278045   8.746   2.703   5.796
24400SOL     OW78046   9.207   3.609   6.740
24400SOL    HW178047   9.268   3.639   6.667
24400SOL    HW278048   9.169   3.520   6.718
24401SOL     OW78049   8.700   3.593   6.714
24401SOL    HW178050   8.784   3.598   6.660
24401SOL    HW278051   8.677   3.497   6.732
24402SOL     OW78052   7.531   3.120   6.608
24402SOL    HW178053   7.526   3.119   6.708
24402SOL    HW278054   7.448   3.079   6.570
24403SOL     OW78055   8.136   3.524   7.302
24403SOL    HW178056   8.080   3.605   7.311
24403SOL    HW278057   8.188   3.528   7.216
24404SOL     OW78058   9.174   1.997   6.109
24404SOL    HW178059   9.247   1.980   6.042
24404SOL    HW278060   9.143   1.910   6.147
24405SOL     OW78061   8.836   3.435   6.063
24405SOL    HW178062   8.903   3.447   5.989
24405SOL    HW278063   8.796   3.524   6.086
24406SOL     OW78064   7.578   3.656   7.437
24406SOL    HW178065   7.537   3.582   7.490
24406SOL    HW278066   7.642   3.707   7.495
24407SOL     OW78067   8.728   2.789   6.258
24407SOL    HW178068   8.788   2.708   6.260
24407SOL    HW278069   8.768   2.858   6.198
24408SOL     OW78070   8.278   3.135   7.008
24408SOL    HW178071   8.273   3.168   7.103
24408SOL    HW278072   8.192   3.154   6.962
24409SOL     OW78073   8.120   3.478   5.740
24409SOL    HW178074   8.129   3.488   5.641
24409SOL    HW278075   8.080   3.389   5.761
24410SOL     OW78076   9.289   2.037   6.549
24410SOL    HW178077   9.328   1.952   6.513
24410SOL    HW278078   9.191   2.039   6.530
24411SOL     OW78079   7.711   2.188   6.306
24411SOL    HW178080   7.632   2.239   6.272
24411SOL    HW278081   7.702   2.173   6.404
24412SOL     OW78082   8.642   3.474   5.617
24412SOL    HW178083   8.648   3.381   5.654
24412SOL    HW278084   8.583   3.474   5.537
24413SOL     OW78085   8.270   2.864   6.958
24413SOL    HW178086   8.310   2.863   6.866
24413SOL    HW278087   8.280   2.956   6.998
24414SOL     OW78088   8.364   2.772   5.877
24414SOL    HW178089   8.427   2.810   5.809
24414SOL    HW278090   8.404   2.689   5.916
24415SOL     OW78091   8.952   3.469   5.630
24415SOL    HW178092   8.860   3.506   5.637
24415SOL    HW278093   8.990   3.489   5.540
24416SOL     OW78094   7.820   3.150   7.076
24416SOL    HW178095   7.807   3.243   7.042
24416SOL    HW278096   7.736   3.098   7.063
24417SOL     OW78097   9.062   3.154   6.875
24417SOL    HW178098   9.122   3.157   6.955
24417SOL    HW278099   8.987   3.218   6.888
24418SOL     OW78100   8.487   2.960   6.282
24418SOL    HW178101   8.417   2.913   6.336
24418SOL    HW278102   8.546   2.892   6.239
24419SOL     OW78103   8.462   2.098   6.557
24419SOL    HW178104   8.454   2.062   6.464
24419SOL    HW278105   8.460   2.022   6.622
24420SOL     OW78106   8.038   3.349   6.077
24420SOL    HW178107   8.080   3.291   6.007
24420SOL    HW278108   7.994   3.428   6.033
24421SOL     OW78109   9.157   2.247   6.967
24421SOL    HW178110   9.230   2.316   6.971
24421SOL    HW278111   9.185   2.172   6.908
24422SOL     OW78112   7.703   3.210   5.876
24422SOL    HW178113   7.607   3.211   5.849
24422SOL    HW278114   7.715   3.263   5.960
24423SOL     OW78115   7.553   2.875   7.312
24423SOL    HW178116   7.476   2.842   7.366
24423SOL    HW278117   7.638   2.845   7.354
24424SOL     OW78118   8.120   2.065   7.075
24424SOL    HW178119   8.210   2.049   7.035
24424SOL    HW278120   8.128   2.070   7.174
24425SOL     OW78121   7.523   2.207   5.619
24425SOL    HW178122   7.431   2.179   5.590
24425SOL    HW278123   7.554   2.284   5.563
24426SOL     OW78124   8.888   2.718   6.984
24426SOL    HW178125   8.831   2.770   6.921
24426SOL    HW278126   8.984   2.730   6.960
24427SOL     OW78127   8.631   3.197   5.705
24427SOL    HW178128   8.532   3.186   5.707
24427SOL    HW278129   8.665   3.212   5.798
24428SOL     OW78130   8.061   2.704   7.017
24428SOL    HW178131   8.117   2.785   7.000
24428SOL    HW278132   8.120   2.624   7.020
24429SOL     OW78133   8.941   3.629   6.545
24429SOL    HW178134   8.974   3.693   6.476
24429SOL    HW278135   9.007   3.623   6.620
24430SOL     OW78136   8.164   2.427   7.294
24430SOL    HW178137   8.183   2.492   7.368
24430SOL    HW278138   8.224   2.347   7.303
24431SOL     OW78139   8.898   3.082   7.219
24431SOL    HW178140   8.889   3.072   7.318
24431SOL    HW278141   8.994   3.075   7.193
24432SOL     OW78142   7.838   3.603   7.146
24432SOL    HW178143   7.747   3.644   7.144
24432SOL    HW278144   7.831   3.509   7.178
24433SOL     OW78145   9.122   2.745   6.840
24433SOL    HW178146   9.095   2.656   6.803
24433SOL    HW278147   9.123   2.813   6.767
24434SOL     OW78148   8.042   2.607   6.238
24434SOL    HW178149   8.092   2.692   6.219
24434SOL    HW278150   7.954   2.609   6.190
24435SOL     OW78151   9.225   2.204   7.228
24435SOL    HW178152   9.208   2.235   7.134
24435SOL    HW278153   9.141   2.167   7.266
24436SOL     OW78154   9.178   2.796   7.103
24436SOL    HW178155   9.216   2.887   7.118
24436SOL    HW278156   9.170   2.779   7.004
24437SOL     OW78157   8.307   3.236   5.602
24437SOL    HW178158   8.261   3.251   5.690
24437SOL    HW278159   8.351   3.321   5.572
24438SOL     OW78160   8.109   3.652   6.539
24438SOL    HW178161   8.063   3.740   6.526
24438SOL    HW278162   8.208   3.664   6.532
24439SOL     OW78163   8.307   2.818   6.447
24439SOL    HW178164   8.361   2.749   6.495
24439SOL    HW278165   8.275   2.887   6.513
24440SOL     OW78166   8.531   2.846   5.673
24440SOL    HW178167   8.508   2.899   5.591
24440SOL    HW278168   8.612   2.790   5.654
24441SOL     OW78169   9.309   3.431   6.437
24441SOL    HW178170   9.238   3.419   6.367
24441SOL    HW278171   9.310   3.352   6.497
24442SOL     OW78172   7.669   3.176   7.430
24442SOL    HW178173   7.604   3.103   7.409
24442SOL    HW278174   7.673   3.190   7.528
24443SOL     OW78175   7.527   3.102   6.239
24443SOL    HW178176   7.526   3.055   6.327
24443SOL    HW278177   7.609   3.074   6.188
24444SOL     OW78178   8.120   3.253   7.210
24444SOL    HW178179   8.042   3.203   7.248
24444SOL    HW278180   8.117   3.348   7.241
24445SOL     OW78181   9.272   2.054   6.813
24445SOL    HW178182   9.268   1.964   6.857
24445SOL    HW278183   9.275   2.043   6.714
24446SOL     OW78184   7.876   2.286   6.106
24446SOL    HW178185   7.906   2.214   6.044
24446SOL    HW278186   7.837   2.246   6.189
24447SOL     OW78187   9.153   3.349   6.690
24447SOL    HW178188   9.060   3.324   6.663
24447SOL    HW278189   9.179   3.299   6.772
24448SOL     OW78190   7.765   2.409   6.866
24448SOL    HW178191   7.803   2.350   6.938
24448SOL    HW278192   7.805   2.383   6.778
24449SOL     OW78193   8.260   3.448   6.273
24449SOL    HW178194   8.292   3.458   6.179
24449SOL    HW278195   8.181   3.386   6.275
24450SOL     OW78196   8.872   2.076   6.698
24450SOL    HW178197   8.924   2.011   6.753
24450SOL    HW278198   8.823   2.139   6.759
24451SOL     OW78199   8.449   1.896   6.740
24451SOL    HW178200   8.386   1.824   6.709
24451SOL    HW278201   8.542   1.860   6.740
24452SOL     OW78202   8.218   3.192   5.887
24452SOL    HW178203   8.172   3.105   5.904
24452SOL    HW278204   8.309   3.189   5.928
24453SOL     OW78205   8.066   3.429   6.870
24453SOL    HW178206   8.061   3.511   6.927
24453SOL    HW278207   8.155   3.426   6.825
24454SOL     OW78208   8.800   1.914   5.754
24454SOL    HW178209   8.835   1.873   5.670
24454SOL    HW278210   8.710   1.876   5.774
24455SOL     OW78211   8.748   2.315   6.277
24455SOL    HW178212   8.689   2.395   6.281
24455SOL    HW278213   8.763   2.280   6.370
24456SOL     OW78214   9.041   2.083   6.468
24456SOL    HW178215   8.957   2.082   6.522
24456SOL    HW278216   9.043   2.166   6.412
24457SOL     OW78217   7.487   2.939   5.886
24457SOL    HW178218   7.586   2.928   5.877
24457SOL    HW278219   7.447   2.853   5.918
24458SOL     OW78220   8.323   3.508   5.923
24458SOL    HW178221   8.246   3.473   5.869
24458SOL    HW278222   8.291   3.579   5.985
24459SOL     OW78223   7.678   2.490   7.561
24459SOL    HW178224   7.585   2.488   7.598
24459SOL    HW278225   7.679   2.451   7.469
24460SOL     OW78226   7.673   2.137   8.444
24460SOL    HW178227   7.708   2.120   8.536
24460SOL    HW278228   7.585   2.092   8.432
24461SOL     OW78229   7.467   2.230   8.095
24461SOL    HW178230   7.385   2.273   8.134
24461SOL    HW278231   7.439   2.157   8.032
24462SOL     OW78232   8.017   3.137   8.613
24462SOL    HW178233   7.924   3.130   8.576
24462SOL    HW278234   8.028   3.226   8.657
24463SOL     OW78235   9.003   3.373   8.151
24463SOL    HW178236   8.946   3.357   8.232
24463SOL    HW278237   8.944   3.383   8.071
24464SOL     OW78238   8.583   2.565   8.165
24464SOL    HW178239   8.640   2.643   8.140
24464SOL    HW278240   8.523   2.591   8.241
24465SOL     OW78241   9.203   2.469   7.679
24465SOL    HW178242   9.191   2.456   7.580
24465SOL    HW278243   9.173   2.388   7.728
24466SOL     OW78244   8.216   3.006   8.471
24466SOL    HW178245   8.138   3.023   8.531
24466SOL    HW278246   8.250   3.093   8.435
24467SOL     OW78247   8.298   2.660   9.271
24467SOL    HW178248   8.294   2.736   9.336
24467SOL    HW278249   8.320   2.696   9.180
24468SOL     OW78250   8.133   2.874   8.113
24468SOL    HW178251   8.202   2.858   8.183
24468SOL    HW278252   8.060   2.931   8.151
24469SOL     OW78253   8.134   3.023   9.251
24469SOL    HW178254   8.194   3.102   9.265
24469SOL    HW278255   8.048   3.054   9.210
24470SOL     OW78256   7.783   3.297   8.509
24470SOL    HW178257   7.705   3.266   8.456
24470SOL    HW278258   7.841   3.355   8.452
24471SOL     OW78259   8.908   3.367   8.787
24471SOL    HW178260   8.932   3.461   8.813
24471SOL    HW278261   8.892   3.313   8.869
24472SOL     OW78262   7.886   2.254   8.947
24472SOL    HW178263   7.968   2.198   8.956
24472SOL    HW278264   7.805   2.196   8.951
24473SOL     OW78265   9.051   2.309   8.185
24473SOL    HW178266   8.977   2.355   8.135
24473SOL    HW278267   9.102   2.377   8.238
24474SOL     OW78268   7.679   3.575   7.931
24474SOL    HW178269   7.713   3.652   7.985
24474SOL    HW278270   7.723   3.575   7.841
24475SOL     OW78271   8.575   3.203   9.138
24475SOL    HW178272   8.622   3.203   9.226
24475SOL    HW278273   8.527   3.116   9.127
24476SOL     OW78274   7.678   3.296   7.986
24476SOL    HW178275   7.652   3.392   7.986
24476SOL    HW278276   7.607   3.242   8.031
24477SOL     OW78277   7.688   2.953   8.334
24477SOL    HW178278   7.702   2.869   8.386
24477SOL    HW278279   7.633   3.017   8.389
24478SOL     OW78280   8.068   3.648   8.887
24478SOL    HW178281   7.976   3.631   8.922
24478SOL    HW278282   8.096   3.740   8.913
24479SOL     OW78283   8.054   2.826   7.571
24479SOL    HW178284   8.061   2.910   7.517
24479SOL    HW278285   8.100   2.839   7.659
24480SOL     OW78286   9.042   1.976   8.928
24480SOL    HW178287   9.024   2.043   8.856
24480SOL    HW278288   9.039   2.022   9.017
24481SOL     OW78289   7.570   2.505   8.011
24481SOL    HW178290   7.525   2.417   8.028
24481SOL    HW278291   7.569   2.559   8.095
24482SOL     OW78292   9.290   3.629   7.807
24482SOL    HW178293   9.344   3.600   7.887
24482SOL    HW278294   9.320   3.719   7.778
24483SOL     OW78295   7.475   3.458   7.565
24483SOL    HW178296   7.456   3.362   7.586
24483SOL    HW278297   7.442   3.516   7.640
24484SOL     OW78298   7.561   2.599   9.045
24484SOL    HW178299   7.649   2.586   9.090
24484SOL    HW278300   7.548   2.696   9.023
24485SOL     OW78301   8.061   3.227   8.174
24485SOL    HW178302   8.012   3.140   8.183
24485SOL    HW278303   8.038   3.270   8.087
24486SOL     OW78304   8.741   3.090   8.871
24486SOL    HW178305   8.778   3.017   8.813
24486SOL    HW278306   8.793   3.095   8.956
24487SOL     OW78307   8.257   1.866   7.950
24487SOL    HW178308   8.297   1.957   7.941
24487SOL    HW278309   8.157   1.874   7.956
24488SOL     OW78310   7.645   2.838   8.712
24488SOL    HW178311   7.734   2.793   8.698
24488SOL    HW278312   7.572   2.773   8.693
24489SOL     OW78313   8.635   3.654   9.064
24489SOL    HW178314   8.659   3.714   8.988
24489SOL    HW278315   8.642   3.559   9.034
24490SOL     OW78316   7.765   2.113   9.249
24490SOL    HW178317   7.836   2.184   9.255
24490SOL    HW278318   7.677   2.152   9.277
24491SOL     OW78319   8.914   3.279   8.401
24491SOL    HW178320   8.855   3.285   8.481
24491SOL    HW278321   8.899   3.191   8.355
24492SOL     OW78322   9.115   3.576   8.020
24492SOL    HW178323   9.074   3.553   7.932
24492SOL    HW278324   9.097   3.502   8.085
24493SOL     OW78325   8.046   2.591   7.718
24493SOL    HW178326   8.070   2.660   7.650
24493SOL    HW278327   7.968   2.624   7.772
24494SOL     OW78328   8.729   2.207   8.392
24494SOL    HW178329   8.643   2.157   8.379
24494SOL    HW278330   8.791   2.153   8.448
24495SOL     OW78331   9.024   3.524   7.755
24495SOL    HW178332   9.113   3.570   7.758
24495SOL    HW278333   9.003   3.500   7.660
24496SOL     OW78334   8.255   2.467   8.913
24496SOL    HW178335   8.208   2.464   9.002
24496SOL    HW278336   8.204   2.412   8.847
24497SOL     OW78337   8.842   2.331   9.122
24497SOL    HW178338   8.822   2.374   9.210
24497SOL    HW278339   8.920   2.269   9.131
24498SOL     OW78340   8.421   2.752   9.020
24498SOL    HW178341   8.467   2.668   8.991
24498SOL    HW278342   8.365   2.786   8.945
24499SOL     OW78343   8.489   2.563   7.877
24499SOL    HW178344   8.515   2.559   7.973
24499SOL    HW278345   8.404   2.512   7.863
24500SOL     OW78346   7.524   2.673   8.237
24500SOL    HW178347   7.623   2.661   8.246
24500SOL    HW278348   7.500   2.768   8.258
24501SOL     OW78349   7.578   3.683   9.019
24501SOL    HW178350   7.568   3.668   9.118
24501SOL    HW278351   7.492   3.719   8.983
24502SOL     OW78352   8.313   2.210   7.643
24502SOL    HW178353   8.372   2.273   7.594
24502SOL    HW278354   8.332   2.116   7.614
24503SOL     OW78355   9.167   2.447   9.279
24503SOL    HW178356   9.141   2.536   9.243
24503SOL    HW278357   9.165   2.379   9.206
24504SOL     OW78358   7.998   2.058   8.333
24504SOL    HW178359   7.993   2.053   8.433
24504SOL    HW278360   8.000   2.154   8.304
24505SOL     OW78361   8.456   3.318   7.925
24505SOL    HW178362   8.410   3.390   7.873
24505SOL    HW278363   8.452   3.338   8.023
24506SOL     OW78364   7.799   3.663   8.301
24506SOL    HW178365   7.849   3.577   8.307
24506SOL    HW278366   7.864   3.740   8.298
24507SOL     OW78367   9.243   2.928   8.321
24507SOL    HW178368   9.181   2.913   8.245
24507SOL    HW278369   9.191   2.939   8.406
24508SOL     OW78370   8.675   3.412   8.954
24508SOL    HW178371   8.681   3.335   9.018
24508SOL    HW278372   8.623   3.386   8.874
24509SOL     OW78373   7.769   2.805   7.690
24509SOL    HW178374   7.851   2.844   7.648
24509SOL    HW278375   7.742   2.723   7.641
24510SOL     OW78376   8.906   2.597   8.176
24510SOL    HW178377   8.901   2.532   8.251
24510SOL    HW278378   8.986   2.656   8.189
24511SOL     OW78379   7.909   3.128   9.175
24511SOL    HW178380   7.859   3.129   9.089
24511SOL    HW278381   7.846   3.110   9.251
24512SOL     OW78382   8.559   3.638   7.685
24512SOL    HW178383   8.499   3.576   7.735
24512SOL    HW278384   8.590   3.594   7.600
24513SOL     OW78385   7.650   2.147   8.946
24513SOL    HW178386   7.570   2.207   8.933
24513SOL    HW278387   7.640   2.098   9.032
24514SOL     OW78388   7.912   3.605   7.771
24514SOL    HW178389   7.945   3.644   7.857
24514SOL    HW278390   7.988   3.598   7.706
24515SOL     OW78391   8.848   1.969   7.874
24515SOL    HW178392   8.824   1.932   7.784
24515SOL    HW278393   8.947   1.985   7.878
24516SOL     OW78394   7.697   3.647   8.689
24516SOL    HW178395   7.754   3.582   8.739
24516SOL    HW278396   7.681   3.614   8.596
24517SOL     OW78397   7.830   2.562   7.928
24517SOL    HW178398   7.875   2.472   7.925
24517SOL    HW278399   7.736   2.551   7.961
24518SOL     OW78400   8.995   2.084   9.177
24518SOL    HW178401   8.990   2.121   9.269
24518SOL    HW278402   8.923   2.015   9.165
24519SOL     OW78403   8.062   1.984   7.565
24519SOL    HW178404   8.160   1.962   7.572
24519SOL    HW278405   8.031   1.967   7.472
24520SOL     OW78406   8.229   2.126   9.197
24520SOL    HW178407   8.296   2.065   9.240
24520SOL    HW278408   8.156   2.145   9.262
24521SOL     OW78409   8.336   3.376   8.643
24521SOL    HW178410   8.313   3.351   8.549
24521SOL    HW278411   8.397   3.307   8.682
24522SOL     OW78412   8.251   3.264   8.372
24522SOL    HW178413   8.341   3.278   8.330
24522SOL    HW278414   8.180   3.266   8.301
24523SOL     OW78415   8.370   2.365   8.347
24523SOL    HW178416   8.345   2.356   8.251
24523SOL    HW278417   8.418   2.283   8.378
24524SOL     OW78418   7.987   1.926   7.960
24524SOL    HW178419   7.906   1.927   8.018
24524SOL    HW278420   7.990   2.009   7.905
24525SOL     OW78421   7.745   1.897   7.619
24525SOL    HW178422   7.794   1.981   7.598
24525SOL    HW278423   7.807   1.832   7.664
24526SOL     OW78424   8.383   2.098   7.928
24526SOL    HW178425   8.335   2.139   7.850
24526SOL    HW278426   8.482   2.096   7.909
24527SOL     OW78427   8.675   3.432   8.241
24527SOL    HW178428   8.696   3.506   8.176
24527SOL    HW278429   8.743   3.432   8.314
24528SOL     OW78430   7.907   3.014   8.189
24528SOL    HW178431   7.836   2.987   8.254
24528SOL    HW278432   7.881   2.986   8.096
24529SOL     OW78433   8.719   3.659   8.039
24529SOL    HW178434   8.763   3.723   7.975
24529SOL    HW278435   8.669   3.711   8.109
24530SOL     OW78436   8.480   2.411   7.464
24530SOL    HW178437   8.439   2.493   7.425
24530SOL    HW278438   8.544   2.437   7.537
24531SOL     OW78439   7.526   2.418   8.834
24531SOL    HW178440   7.618   2.417   8.793
24531SOL    HW278441   7.520   2.492   8.901
24532SOL     OW78442   8.009   2.084   8.595
24532SOL    HW178443   8.047   2.000   8.632
24532SOL    HW278444   7.921   2.103   8.639
24533SOL     OW78445   8.314   2.316   8.090
24533SOL    HW178446   8.282   2.388   8.028
24533SOL    HW278447   8.338   2.235   8.037
24534SOL     OW78448   8.465   1.901   8.201
24534SOL    HW178449   8.393   1.906   8.132
24534SOL    HW278450   8.441   1.832   8.270
24535SOL     OW78451   8.877   3.035   8.315
24535SOL    HW178452   8.822   2.951   8.308
24535SOL    HW278453   8.903   3.064   8.223
24536SOL     OW78454   8.914   2.452   8.440
24536SOL    HW178455   8.884   2.357   8.447
24536SOL    HW278456   8.987   2.468   8.506
24537SOL     OW78457   9.305   2.695   7.825
24537SOL    HW178458   9.347   2.631   7.889
24537SOL    HW278459   9.267   2.644   7.747
24538SOL     OW78460   7.936   3.247   7.622
24538SOL    HW178461   7.849   3.232   7.669
24538SOL    HW278462   7.919   3.273   7.527
24539SOL     OW78463   9.112   3.142   8.105
24539SOL    HW178464   9.211   3.150   8.119
24539SOL    HW278465   9.067   3.226   8.136
24540SOL     OW78466   8.838   2.437   7.526
24540SOL    HW178467   8.784   2.416   7.607
24540SOL    HW278468   8.929   2.396   7.535
24541SOL     OW78469   7.975   2.118   7.776
24541SOL    HW178470   8.002   2.059   7.701
24541SOL    HW278471   7.975   2.213   7.745
24542SOL     OW78472   9.202   3.085   9.036
24542SOL    HW178473   9.293   3.046   9.023
24542SOL    HW278474   9.210   3.181   9.060
24543SOL     OW78475   8.512   3.209   8.788
24543SOL    HW178476   8.432   3.186   8.843
24543SOL    HW278477   8.595   3.183   8.837
24544SOL     OW78478   9.040   3.491   9.073
24544SOL    HW178479   9.067   3.525   8.983
24544SOL    HW278480   9.119   3.453   9.119
24545SOL     OW78481   8.559   3.057   8.548
24545SOL    HW178482   8.519   3.101   8.629
24545SOL    HW278483   8.518   3.094   8.465
24546SOL     OW78484   9.086   2.961   8.527
24546SOL    HW178485   9.091   3.042   8.586
24546SOL    HW278486   9.000   2.963   8.476
24547SOL     OW78487   8.428   2.978   9.167
24547SOL    HW178488   8.329   2.984   9.177
24547SOL    HW278489   8.451   2.898   9.111
24548SOL     OW78490   8.153   2.912   7.816
24548SOL    HW178491   8.139   2.919   7.915
24548SOL    HW278492   8.237   2.861   7.798
24549SOL     OW78493   7.858   2.675   8.699
24549SOL    HW178494   7.944   2.687   8.749
24549SOL    HW278495   7.816   2.588   8.726
24550SOL     OW78496   7.512   3.426   8.779
24550SOL    HW178497   7.466   3.508   8.745
24550SOL    HW278498   7.610   3.445   8.788
24551SOL     OW78499   7.815   2.962   7.949
24551SOL    HW178500   7.808   3.045   7.893
24551SOL    HW278501   7.819   2.882   7.889
24552SOL     OW78502   8.014   2.399   8.313
24552SOL    HW178503   8.026   2.465   8.239
24552SOL    HW278504   8.060   2.433   8.396
24553SOL     OW78505   8.700   3.210   7.836
24553SOL    HW178506   8.750   3.287   7.876
24553SOL    HW278507   8.605   3.212   7.868
24554SOL     OW78508   8.720   3.307   8.590
24554SOL    HW178509   8.767   3.320   8.677
24554SOL    HW278510   8.654   3.233   8.599
24555SOL     OW78511   9.030   2.501   7.920
24555SOL    HW178512   8.999   2.562   7.993
24555SOL    HW278513   9.080   2.553   7.851
24556SOL     OW78514   7.802   3.372   8.777
24556SOL    HW178515   7.781   3.328   8.690
24556SOL    HW278516   7.899   3.398   8.780
24557SOL     OW78517   7.850   2.613   9.046
24557SOL    HW178518   7.918   2.668   8.999
24557SOL    HW278519   7.890   2.525   9.073
24558SOL     OW78520   9.035   2.641   9.118
24558SOL    HW178521   8.943   2.679   9.113
24558SOL    HW278522   9.095   2.688   9.053
24559SOL     OW78523   8.461   1.967   9.218
24559SOL    HW178524   8.467   2.052   9.166
24559SOL    HW278525   8.493   1.891   9.161
24560SOL     OW78526   7.952   1.912   9.188
24560SOL    HW178527   7.910   1.855   9.118
24560SOL    HW278528   7.886   1.981   9.220
24561SOL     OW78529   8.021   2.732   8.477
24561SOL    HW178530   8.065   2.821   8.468
24561SOL    HW278531   7.958   2.732   8.554
24562SOL     OW78532   8.808   2.724   8.493
24562SOL    HW178533   8.733   2.724   8.427
24562SOL    HW278534   8.845   2.632   8.502
24563SOL     OW78535   8.657   2.387   7.723
24563SOL    HW178536   8.670   2.303   7.777
24563SOL    HW278537   8.628   2.461   7.783
24564SOL     OW78538   7.755   2.075   8.679
24564SOL    HW178539   7.732   2.112   8.769
24564SOL    HW278540   7.725   1.980   8.673
24565SOL     OW78541   7.485   3.172   8.730
24565SOL    HW178542   7.538   3.123   8.798
24565SOL    HW278543   7.507   3.270   8.735
24566SOL     OW78544   8.180   2.496   8.512
24566SOL    HW178545   8.239   2.470   8.436
24566SOL    HW278546   8.152   2.592   8.501
24567SOL     OW78547   9.176   2.797   9.302
24567SOL    HW178548   9.130   2.790   9.213
24567SOL    HW278549   9.114   2.841   9.368
24568SOL     OW78550   7.755   1.925   8.066
24568SOL    HW178551   7.744   2.019   8.099
24568SOL    HW278552   7.750   1.862   8.143
24569SOL     OW78553   9.070   2.229   7.822
24569SOL    HW178554   9.072   2.153   7.886
24569SOL    HW278555   9.022   2.306   7.862
24570SOL     OW78556   8.471   2.628   8.414
24570SOL    HW178557   8.486   2.649   8.510
24570SOL    HW278558   8.441   2.533   8.405
24571SOL     OW78559   8.428   3.435   9.148
24571SOL    HW178560   8.408   3.479   9.060
24571SOL    HW278561   8.467   3.344   9.132
24572SOL     OW78562   9.307   3.380   9.053
24572SOL    HW178563   9.321   3.407   8.958
24572SOL    HW278564   9.390   3.402   9.106
24573SOL     OW78565   7.798   2.760   9.252
24573SOL    HW178566   7.874   2.804   9.300
24573SOL    HW278567   7.833   2.713   9.170
24574SOL     OW78568   8.988   2.136   7.573
24574SOL    HW178569   8.927   2.061   7.596
24574SOL    HW278570   9.010   2.188   7.656
24575SOL     OW78571   8.751   2.700   7.490
24575SOL    HW178572   8.785   2.607   7.505
24575SOL    HW278573   8.769   2.727   7.395
24576SOL     OW78574   8.516   3.195   8.297
24576SOL    HW178575   8.523   3.111   8.242
24576SOL    HW278576   8.578   3.264   8.261
24577SOL     OW78577   7.767   2.672   8.397
24577SOL    HW178578   7.860   2.708   8.402
24577SOL    HW278579   7.761   2.587   8.449
24578SOL     OW78580   7.787   2.371   8.454
24578SOL    HW178581   7.735   2.288   8.437
24578SOL    HW278582   7.864   2.376   8.390
24579SOL     OW78583   7.456   3.188   7.648
24579SOL    HW178584   7.363   3.209   7.617
24579SOL    HW278585   7.466   3.089   7.661
24580SOL     OW78586   7.536   3.663   8.375
24580SOL    HW178587   7.494   3.577   8.348
24580SOL    HW278588   7.630   3.666   8.341
24581SOL     OW78589   7.952   3.430   8.358
24581SOL    HW178590   8.018   3.504   8.367
24581SOL    HW278591   7.996   3.351   8.316
24582SOL     OW78592   8.450   2.658   8.686
24582SOL    HW178593   8.491   2.626   8.772
24582SOL    HW278594   8.354   2.631   8.683
24583SOL     OW78595   7.488   2.406   8.562
24583SOL    HW178596   7.573   2.373   8.521
24583SOL    HW278597   7.501   2.421   8.660
24584SOL     OW78598   7.637   2.382   9.170
24584SOL    HW178599   7.696   2.342   9.100
24584SOL    HW278600   7.579   2.453   9.129
24585SOL     OW78601   8.817   2.812   9.108
24585SOL    HW178602   8.856   2.901   9.128
24585SOL    HW278603   8.827   2.792   9.011
24586SOL     OW78604   8.263   2.434   7.773
24586SOL    HW178605   8.270   2.345   7.727
24586SOL    HW278606   8.169   2.468   7.765
24587SOL     OW78607   9.105   2.466   8.654
24587SOL    HW178608   9.067   2.397   8.716
24587SOL    HW278609   9.187   2.430   8.610
24588SOL     OW78610   7.700   3.426   9.192
24588SOL    HW178611   7.670   3.483   9.268
24588SOL    HW278612   7.693   3.329   9.218
24589SOL     OW78613   8.119   2.326   8.717
24589SOL    HW178614   8.085   2.237   8.687
24589SOL    HW278615   8.145   2.380   8.637
24590SOL     OW78616   8.378   3.540   8.913
24590SOL    HW178617   8.354   3.522   8.818
24590SOL    HW278618   8.408   3.634   8.923
24591SOL     OW78619   7.921   2.362   7.639
24591SOL    HW178620   7.982   2.442   7.643
24591SOL    HW278621   7.826   2.393   7.646
24592SOL     OW78622   7.607   2.999   8.914
24592SOL    HW178623   7.629   2.938   8.990
24592SOL    HW278624   7.617   2.950   8.828
24593SOL     OW78625   8.795   2.921   8.682
24593SOL    HW178626   8.819   2.858   8.608
24593SOL    HW278627   8.705   2.961   8.664
24594SOL     OW78628   8.750   2.717   7.757
24594SOL    HW178629   8.664   2.686   7.799
24594SOL    HW278630   8.746   2.703   7.658
24595SOL     OW78631   9.207   3.609   8.602
24595SOL    HW178632   9.268   3.639   8.529
24595SOL    HW278633   9.169   3.520   8.580
24596SOL     OW78634   8.700   3.593   8.576
24596SOL    HW178635   8.784   3.598   8.522
24596SOL    HW278636   8.677   3.497   8.594
24597SOL     OW78637   7.531   3.120   8.470
24597SOL    HW178638   7.526   3.119   8.570
24597SOL    HW278639   7.448   3.079   8.432
24598SOL     OW78640   8.136   3.524   9.164
24598SOL    HW178641   8.080   3.605   9.173
24598SOL    HW278642   8.188   3.528   9.078
24599SOL     OW78643   9.174   1.997   7.971
24599SOL    HW178644   9.247   1.980   7.904
24599SOL    HW278645   9.143   1.910   8.009
24600SOL     OW78646   8.836   3.435   7.925
24600SOL    HW178647   8.903   3.447   7.851
24600SOL    HW278648   8.796   3.524   7.948
24601SOL     OW78649   7.578   3.656   9.299
24601SOL    HW178650   7.537   3.582   9.352
24601SOL    HW278651   7.642   3.707   9.357
24602SOL     OW78652   8.728   2.789   8.120
24602SOL    HW178653   8.788   2.708   8.122
24602SOL    HW278654   8.768   2.858   8.060
24603SOL     OW78655   8.278   3.135   8.870
24603SOL    HW178656   8.273   3.168   8.965
24603SOL    HW278657   8.192   3.154   8.824
24604SOL     OW78658   8.120   3.478   7.602
24604SOL    HW178659   8.129   3.488   7.503
24604SOL    HW278660   8.080   3.389   7.623
24605SOL     OW78661   9.289   2.037   8.411
24605SOL    HW178662   9.328   1.952   8.375
24605SOL    HW278663   9.191   2.039   8.392
24606SOL     OW78664   7.711   2.188   8.168
24606SOL    HW178665   7.632   2.239   8.134
24606SOL    HW278666   7.702   2.173   8.266
24607SOL     OW78667   8.642   3.474   7.479
24607SOL    HW178668   8.648   3.381   7.516
24607SOL    HW278669   8.583   3.474   7.399
24608SOL     OW78670   8.270   2.864   8.820
24608SOL    HW178671   8.310   2.863   8.728
24608SOL    HW278672   8.280   2.956   8.860
24609SOL     OW78673   8.364   2.772   7.739
24609SOL    HW178674   8.427   2.810   7.671
24609SOL    HW278675   8.404   2.689   7.778
24610SOL     OW78676   8.952   3.469   7.492
24610SOL    HW178677   8.860   3.506   7.499
24610SOL    HW278678   8.990   3.489   7.402
24611SOL     OW78679   7.820   3.150   8.938
24611SOL    HW178680   7.807   3.243   8.904
24611SOL    HW278681   7.736   3.098   8.925
24612SOL     OW78682   9.062   3.154   8.737
24612SOL    HW178683   9.122   3.157   8.817
24612SOL    HW278684   8.987   3.218   8.750
24613SOL     OW78685   8.487   2.960   8.144
24613SOL    HW178686   8.417   2.913   8.198
24613SOL    HW278687   8.546   2.892   8.101
24614SOL     OW78688   8.038   3.349   7.939
24614SOL    HW178689   8.080   3.291   7.869
24614SOL    HW278690   7.994   3.428   7.895
24615SOL     OW78691   9.157   2.247   8.829
24615SOL    HW178692   9.230   2.316   8.833
24615SOL    HW278693   9.185   2.172   8.770
24616SOL     OW78694   7.703   3.210   7.738
24616SOL    HW178695   7.607   3.211   7.711
24616SOL    HW278696   7.715   3.263   7.822
24617SOL     OW78697   7.553   2.875   9.174
24617SOL    HW178698   7.476   2.842   9.228
24617SOL    HW278699   7.638   2.845   9.216
24618SOL     OW78700   8.120   2.065   8.937
24618SOL    HW178701   8.210   2.049   8.897
24618SOL    HW278702   8.128   2.070   9.036
24619SOL     OW78703   7.523   2.207   7.481
24619SOL    HW178704   7.431   2.179   7.452
24619SOL    HW278705   7.554   2.284   7.425
24620SOL     OW78706   8.888   2.718   8.846
24620SOL    HW178707   8.831   2.770   8.783
24620SOL    HW278708   8.984   2.730   8.822
24621SOL     OW78709   7.520   2.028   7.766
24621SOL    HW178710   7.503   2.111   7.712
24621SOL    HW278711   7.610   1.991   7.744
24622SOL     OW78712   8.631   3.197   7.567
24622SOL    HW178713   8.532   3.186   7.569
24622SOL    HW278714   8.665   3.212   7.660
24623SOL     OW78715   8.061   2.704   8.879
24623SOL    HW178716   8.117   2.785   8.862
24623SOL    HW278717   8.120   2.624   8.882
24624SOL     OW78718   8.941   3.629   8.407
24624SOL    HW178719   8.974   3.693   8.338
24624SOL    HW278720   9.007   3.623   8.482
24625SOL     OW78721   8.164   2.427   9.156
24625SOL    HW178722   8.183   2.492   9.230
24625SOL    HW278723   8.224   2.347   9.165
24626SOL     OW78724   8.898   3.082   9.081
24626SOL    HW178725   8.889   3.072   9.180
24626SOL    HW278726   8.994   3.075   9.055
24627SOL     OW78727   7.838   3.603   9.008
24627SOL    HW178728   7.747   3.644   9.006
24627SOL    HW278729   7.831   3.509   9.040
24628SOL     OW78730   9.122   2.745   8.702
24628SOL    HW178731   9.095   2.656   8.665
24628SOL    HW278732   9.123   2.813   8.629
24629SOL     OW78733   8.673   2.187   7.897
24629SOL    HW178734   8.738   2.113   7.886
24629SOL    HW278735   8.693   2.237   7.981
24630SOL     OW78736   8.042   2.607   8.100
24630SOL    HW178737   8.092   2.692   8.081
24630SOL    HW278738   7.954   2.609   8.052
24631SOL     OW78739   9.225   2.204   9.090
24631SOL    HW178740   9.208   2.235   8.996
24631SOL    HW278741   9.141   2.167   9.128
24632SOL     OW78742   9.178   2.796   8.965
24632SOL    HW178743   9.216   2.887   8.980
24632SOL    HW278744   9.170   2.779   8.866
24633SOL     OW78745   8.307   3.236   7.464
24633SOL    HW178746   8.261   3.251   7.552
24633SOL    HW278747   8.351   3.321   7.434
24634SOL     OW78748   8.109   3.652   8.401
24634SOL    HW178749   8.063   3.740   8.388
24634SOL    HW278750   8.208   3.664   8.394
24635SOL     OW78751   8.307   2.818   8.309
24635SOL    HW178752   8.361   2.749   8.357
24635SOL    HW278753   8.275   2.887   8.375
24636SOL     OW78754   8.531   2.846   7.535
24636SOL    HW178755   8.508   2.899   7.453
24636SOL    HW278756   8.612   2.790   7.516
24637SOL     OW78757   9.309   3.431   8.299
24637SOL    HW178758   9.238   3.419   8.229
24637SOL    HW278759   9.310   3.352   8.359
24638SOL     OW78760   7.527   3.102   8.101
24638SOL    HW178761   7.526   3.055   8.189
24638SOL    HW278762   7.609   3.074   8.050
24639SOL     OW78763   8.120   3.253   9.072
24639SOL    HW178764   8.042   3.203   9.110
24639SOL    HW278765   8.117   3.348   9.103
24640SOL     OW78766   9.272   2.054   8.675
24640SOL    HW178767   9.268   1.964   8.719
24640SOL    HW278768   9.275   2.043   8.576
24641SOL     OW78769   7.876   2.286   7.968
24641SOL    HW178770   7.906   2.214   7.906
24641SOL    HW278771   7.837   2.246   8.051
24642SOL     OW78772   9.153   3.349   8.552
24642SOL    HW178773   9.060   3.324   8.525
24642SOL    HW278774   9.179   3.299   8.634
24643SOL     OW78775   7.765   2.409   8.728
24643SOL    HW178776   7.803   2.350   8.800
24643SOL    HW278777   7.805   2.383   8.640
24644SOL     OW78778   8.260   3.448   8.135
24644SOL    HW178779   8.292   3.458   8.041
24644SOL    HW278780   8.181   3.386   8.137
24645SOL     OW78781   8.218   3.192   7.749
24645SOL    HW178782   8.172   3.105   7.766
24645SOL    HW278783   8.309   3.189   7.790
24646SOL     OW78784   8.066   3.429   8.732
24646SOL    HW178785   8.061   3.511   8.789
24646SOL    HW278786   8.155   3.426   8.687
24647SOL     OW78787   8.800   1.914   7.616
24647SOL    HW178788   8.835   1.873   7.532
24647SOL    HW278789   8.710   1.876   7.636
24648SOL     OW78790   8.748   2.315   8.139
24648SOL    HW178791   8.689   2.395   8.143
24648SOL    HW278792   8.763   2.280   8.232
24649SOL     OW78793   9.041   2.083   8.330
24649SOL    HW178794   8.957   2.082   8.384
24649SOL    HW278795   9.043   2.166   8.274
24650SOL     OW78796   7.487   2.939   7.748
24650SOL    HW178797   7.586   2.928   7.739
24650SOL    HW278798   7.447   2.853   7.780
24651SOL     OW78799   8.323   3.508   7.785
24651SOL    HW178800   8.246   3.473   7.731
24651SOL    HW278801   8.291   3.579   7.847
24652SOL     OW78802   7.678   2.490   9.423
24652SOL    HW178803   7.585   2.488   9.460
24652SOL    HW278804   7.679   2.451   9.331
24653SOL     OW78805   9.203   2.469   9.541
24653SOL    HW178806   9.191   2.456   9.442
24653SOL    HW278807   9.173   2.388   9.590
24654SOL     OW78808   7.679   3.575   9.793
24654SOL    HW178809   7.713   3.652   9.847
24654SOL    HW278810   7.723   3.575   9.703
24655SOL     OW78811   7.678   3.296   9.848
24655SOL    HW178812   7.652   3.392   9.848
24655SOL    HW278813   7.607   3.242   9.893
24656SOL     OW78814   8.054   2.826   9.433
24656SOL    HW178815   8.061   2.910   9.379
24656SOL    HW278816   8.100   2.839   9.521
24657SOL     OW78817   7.570   2.505   9.873
24657SOL    HW178818   7.525   2.417   9.890
24657SOL    HW278819   7.569   2.559   9.957
24658SOL     OW78820   9.290   3.629   9.669
24658SOL    HW178821   9.344   3.600   9.749
24658SOL    HW278822   9.320   3.719   9.640
24659SOL     OW78823   7.475   3.458   9.427
24659SOL    HW178824   7.456   3.362   9.448
24659SOL    HW278825   7.442   3.516   9.502
24660SOL     OW78826   9.137   2.784   9.922
24660SOL    HW178827   9.232   2.755   9.930
24660SOL    HW278828   9.129   2.849   9.847
24661SOL     OW78829   9.089   2.970   9.742
24661SOL    HW178830   9.175   2.972   9.690
24661SOL    HW278831   9.103   3.017   9.830
24662SOL     OW78832   8.061   3.227  10.036
24662SOL    HW178833   8.012   3.140  10.045
24662SOL    HW278834   8.038   3.270   9.949
24663SOL     OW78835   8.257   1.866   9.812
24663SOL    HW178836   8.297   1.957   9.803
24663SOL    HW278837   8.157   1.874   9.818
24664SOL     OW78838   8.973   2.861   9.500
24664SOL    HW178839   8.910   2.785   9.513
24664SOL    HW278840   9.021   2.879   9.586
24665SOL     OW78841   8.046   2.591   9.580
24665SOL    HW178842   8.070   2.660   9.512
24665SOL    HW278843   7.968   2.624   9.634
24666SOL     OW78844   8.489   2.563   9.739
24666SOL    HW178845   8.515   2.559   9.835
24666SOL    HW278846   8.404   2.512   9.725
24667SOL     OW78847   7.524   2.673  10.099
24667SOL    HW178848   7.623   2.661  10.108
24667SOL    HW278849   7.500   2.768  10.120
24668SOL     OW78850   8.313   2.210   9.505
24668SOL    HW178851   8.372   2.273   9.456
24668SOL    HW278852   8.332   2.116   9.476
24669SOL     OW78853   8.456   3.318   9.787
24669SOL    HW178854   8.410   3.390   9.735
24669SOL    HW278855   8.452   3.338   9.885
24670SOL     OW78856   7.769   2.805   9.552
24670SOL    HW178857   7.851   2.844   9.510
24670SOL    HW278858   7.742   2.723   9.503
24671SOL     OW78859   8.559   3.638   9.547
24671SOL    HW178860   8.499   3.576   9.597
24671SOL    HW278861   8.590   3.594   9.462
24672SOL     OW78862   9.080   3.239   9.391
24672SOL    HW178863   9.048   3.333   9.381
24672SOL    HW278864   9.004   3.176   9.379
24673SOL     OW78865   7.912   3.605   9.633
24673SOL    HW178866   7.945   3.644   9.719
24673SOL    HW278867   7.988   3.598   9.568
24674SOL     OW78868   8.848   1.969   9.736
24674SOL    HW178869   8.824   1.932   9.646
24674SOL    HW278870   8.947   1.985   9.740
24675SOL     OW78871   8.062   1.984   9.427
24675SOL    HW178872   8.160   1.962   9.434
24675SOL    HW278873   8.031   1.967   9.334
24676SOL     OW78874   7.987   1.926   9.822
24676SOL    HW178875   7.906   1.927   9.880
24676SOL    HW278876   7.990   2.009   9.767
24677SOL     OW78877   8.882   3.050   9.351
24677SOL    HW178878   8.914   2.974   9.408
24677SOL    HW278879   8.790   3.077   9.381
24678SOL     OW78880   7.745   1.897   9.481
24678SOL    HW178881   7.794   1.981   9.460
24678SOL    HW278882   7.807   1.832   9.526
24679SOL     OW78883   8.383   2.098   9.790
24679SOL    HW178884   8.335   2.139   9.712
24679SOL    HW278885   8.482   2.096   9.771
24680SOL     OW78886   8.480   2.411   9.326
24680SOL    HW178887   8.439   2.493   9.287
24680SOL    HW278888   8.544   2.437   9.399
24681SOL     OW78889   8.314   2.316   9.952
24681SOL    HW178890   8.282   2.388   9.890
24681SOL    HW278891   8.338   2.235   9.899
24682SOL     OW78892   9.305   2.695   9.687
24682SOL    HW178893   9.347   2.631   9.751
24682SOL    HW278894   9.267   2.644   9.609
24683SOL     OW78895   7.936   3.247   9.484
24683SOL    HW178896   7.849   3.232   9.531
24683SOL    HW278897   7.919   3.273   9.389
24684SOL     OW78898   8.838   2.437   9.388
24684SOL    HW178899   8.784   2.416   9.469
24684SOL    HW278900   8.929   2.396   9.397
24685SOL     OW78901   7.975   2.118   9.638
24685SOL    HW178902   8.002   2.059   9.563
24685SOL    HW278903   7.975   2.213   9.607
24686SOL     OW78904   8.153   2.912   9.678
24686SOL    HW178905   8.139   2.919   9.777
24686SOL    HW278906   8.237   2.861   9.660
24687SOL     OW78907   7.815   2.962   9.811
24687SOL    HW178908   7.808   3.045   9.755
24687SOL    HW278909   7.819   2.882   9.751
24688SOL     OW78910   9.030   2.501   9.782
24688SOL    HW178911   8.999   2.562   9.855
24688SOL    HW278912   9.080   2.553   9.713
24689SOL     OW78913   8.657   2.387   9.585
24689SOL    HW178914   8.670   2.303   9.639
24689SOL    HW278915   8.628   2.461   9.645
24690SOL     OW78916   7.755   1.925   9.928
24690SOL    HW178917   7.744   2.019   9.961
24690SOL    HW278918   7.750   1.862  10.005
24691SOL     OW78919   9.070   2.229   9.684
24691SOL    HW178920   9.072   2.153   9.748
24691SOL    HW278921   9.022   2.306   9.724
24692SOL     OW78922   8.751   2.700   9.352
24692SOL    HW178923   8.785   2.607   9.367
24692SOL    HW278924   8.769   2.727   9.257
24693SOL     OW78925   7.456   3.188   9.510
24693SOL    HW178926   7.363   3.209   9.479
24693SOL    HW278927   7.466   3.089   9.523
24694SOL     OW78928   8.263   2.434   9.635
24694SOL    HW178929   8.270   2.345   9.589
24694SOL    HW278930   8.169   2.468   9.627
24695SOL     OW78931   7.921   2.362   9.501
24695SOL    HW178932   7.982   2.442   9.505
24695SOL    HW278933   7.826   2.393   9.508
24696SOL     OW78934   8.750   2.717   9.619
24696SOL    HW178935   8.664   2.686   9.661
24696SOL    HW278936   8.746   2.703   9.520
24697SOL     OW78937   9.174   1.997   9.833
24697SOL    HW178938   9.247   1.980   9.766
24697SOL    HW278939   9.143   1.910   9.871
24698SOL     OW78940   8.120   3.478   9.464
24698SOL    HW178941   8.129   3.488   9.365
24698SOL    HW278942   8.080   3.389   9.485
24699SOL     OW78943   8.642   3.474   9.341
24699SOL    HW178944   8.648   3.381   9.378
24699SOL    HW278945   8.583   3.474   9.261
24700SOL     OW78946   8.952   3.469   9.354
24700SOL    HW178947   8.860   3.506   9.361
24700SOL    HW278948   8.990   3.489   9.264
24701SOL     OW78949   8.038   3.349   9.801
24701SOL    HW178950   8.080   3.291   9.731
24701SOL    HW278951   7.994   3.428   9.757
24702SOL     OW78952   7.703   3.210   9.600
24702SOL    HW178953   7.607   3.211   9.573
24702SOL    HW278954   7.715   3.263   9.684
24703SOL     OW78955   7.523   2.207   9.343
24703SOL    HW178956   7.431   2.179   9.314
24703SOL    HW278957   7.554   2.284   9.287
24704SOL     OW78958   7.520   2.028   9.628
24704SOL    HW178959   7.503   2.111   9.574
24704SOL    HW278960   7.610   1.991   9.606
24705SOL     OW78961   8.631   3.197   9.429
24705SOL    HW178962   8.532   3.186   9.431
24705SOL    HW278963   8.665   3.212   9.522
24706SOL     OW78964   8.673   2.187   9.759
24706SOL    HW178965   8.738   2.113   9.748
24706SOL    HW278966   8.693   2.237   9.843
24707SOL     OW78967   8.307   3.236   9.326
24707SOL    HW178968   8.261   3.251   9.414
24707SOL    HW278969   8.351   3.321   9.296
24708SOL     OW78970   7.527   3.102   9.963
24708SOL    HW178971   7.526   3.055  10.051
24708SOL    HW278972   7.609   3.074   9.912
24709SOL     OW78973   7.876   2.286   9.830
24709SOL    HW178974   7.906   2.214   9.768
24709SOL    HW278975   7.837   2.246   9.913
24710SOL     OW78976   8.218   3.192   9.611
24710SOL    HW178977   8.172   3.105   9.628
24710SOL    HW278978   8.309   3.189   9.652
24711SOL     OW78979   8.800   1.914   9.478
24711SOL    HW178980   8.835   1.873   9.394
24711SOL    HW278981   8.710   1.876   9.498
24712SOL     OW78982   7.487   2.939   9.610
24712SOL    HW178983   7.586   2.928   9.601
24712SOL    HW278984   7.447   2.853   9.642
24713SOL     OW78985   8.323   3.508   9.647
24713SOL    HW178986   8.246   3.473   9.593
24713SOL    HW278987   8.291   3.579   9.709
24714SOL     OW78988   7.678   4.352   0.113
24714SOL    HW178989   7.585   4.350   0.150
24714SOL    HW278990   7.679   4.313   0.021
24715SOL     OW78991   7.673   3.999   0.996
24715SOL    HW178992   7.708   3.982   1.088
24715SOL    HW278993   7.585   3.954   0.984
24716SOL     OW78994   7.467   4.092   0.647
24716SOL    HW178995   7.385   4.135   0.686
24716SOL    HW278996   7.439   4.019   0.584
24717SOL     OW78997   8.017   4.999   1.165
24717SOL    HW178998   7.924   4.992   1.128
24717SOL    HW278999   8.028   5.088   1.209
24718SOL     OW79000   9.003   5.235   0.703
24718SOL    HW179001   8.946   5.219   0.784
24718SOL    HW279002   8.944   5.245   0.623
24719SOL     OW79003   8.583   4.427   0.717
24719SOL    HW179004   8.640   4.505   0.692
24719SOL    HW279005   8.523   4.453   0.793
24720SOL     OW79006   9.203   4.331   0.231
24720SOL    HW179007   9.191   4.318   0.132
24720SOL    HW279008   9.173   4.250   0.280
24721SOL     OW79009   8.216   4.868   1.023
24721SOL    HW179010   8.138   4.885   1.083
24721SOL    HW279011   8.250   4.955   0.987
24722SOL     OW79012   8.298   4.522   1.823
24722SOL    HW179013   8.294   4.598   1.888
24722SOL    HW279014   8.320   4.558   1.732
24723SOL     OW79015   8.133   4.736   0.665
24723SOL    HW179016   8.202   4.720   0.735
24723SOL    HW279017   8.060   4.793   0.703
24724SOL     OW79018   8.134   4.885   1.803
24724SOL    HW179019   8.194   4.964   1.817
24724SOL    HW279020   8.048   4.916   1.762
24725SOL     OW79021   7.783   5.159   1.061
24725SOL    HW179022   7.705   5.128   1.008
24725SOL    HW279023   7.841   5.217   1.004
24726SOL     OW79024   8.908   5.229   1.339
24726SOL    HW179025   8.932   5.323   1.365
24726SOL    HW279026   8.892   5.175   1.421
24727SOL     OW79027   7.886   4.116   1.499
24727SOL    HW179028   7.968   4.060   1.508
24727SOL    HW279029   7.805   4.058   1.503
24728SOL     OW79030   9.051   4.171   0.737
24728SOL    HW179031   8.977   4.217   0.687
24728SOL    HW279032   9.102   4.239   0.790
24729SOL     OW79033   7.679   5.437   0.483
24729SOL    HW179034   7.713   5.514   0.537
24729SOL    HW279035   7.723   5.437   0.393
24730SOL     OW79036   8.575   5.065   1.690
24730SOL    HW179037   8.622   5.065   1.778
24730SOL    HW279038   8.527   4.978   1.679
24731SOL     OW79039   7.678   5.158   0.538
24731SOL    HW179040   7.652   5.254   0.538
24731SOL    HW279041   7.607   5.104   0.583
24732SOL     OW79042   7.688   4.815   0.886
24732SOL    HW179043   7.702   4.731   0.938
24732SOL    HW279044   7.633   4.879   0.941
24733SOL     OW79045   8.068   5.510   1.439
24733SOL    HW179046   7.976   5.493   1.474
24733SOL    HW279047   8.096   5.602   1.465
24734SOL     OW79048   8.054   4.688   0.123
24734SOL    HW179049   8.061   4.772   0.069
24734SOL    HW279050   8.100   4.701   0.211
24735SOL     OW79051   9.042   3.838   1.480
24735SOL    HW179052   9.024   3.905   1.408
24735SOL    HW279053   9.039   3.884   1.569
24736SOL     OW79054   7.570   4.367   0.563
24736SOL    HW179055   7.525   4.279   0.580
24736SOL    HW279056   7.569   4.421   0.647
24737SOL     OW79057   9.290   5.491   0.359
24737SOL    HW179058   9.344   5.462   0.439
24737SOL    HW279059   9.320   5.581   0.330
24738SOL     OW79060   7.475   5.320   0.117
24738SOL    HW179061   7.456   5.224   0.138
24738SOL    HW279062   7.442   5.378   0.192
24739SOL     OW79063   9.137   4.646   0.612
24739SOL    HW179064   9.232   4.617   0.620
24739SOL    HW279065   9.129   4.711   0.537
24740SOL     OW79066   9.089   4.832   0.432
24740SOL    HW179067   9.175   4.834   0.380
24740SOL    HW279068   9.103   4.879   0.520
24741SOL     OW79069   7.561   4.461   1.597
24741SOL    HW179070   7.649   4.448   1.642
24741SOL    HW279071   7.548   4.558   1.575
24742SOL     OW79072   8.061   5.089   0.726
24742SOL    HW179073   8.012   5.002   0.735
24742SOL    HW279074   8.038   5.132   0.639
24743SOL     OW79075   8.741   4.952   1.423
24743SOL    HW179076   8.778   4.879   1.365
24743SOL    HW279077   8.793   4.957   1.508
24744SOL     OW79078   8.257   3.728   0.502
24744SOL    HW179079   8.297   3.819   0.493
24744SOL    HW279080   8.157   3.736   0.508
24745SOL     OW79081   7.645   4.700   1.264
24745SOL    HW179082   7.734   4.655   1.250
24745SOL    HW279083   7.572   4.635   1.245
24746SOL     OW79084   8.973   4.723   0.190
24746SOL    HW179085   8.910   4.647   0.203
24746SOL    HW279086   9.021   4.741   0.276
24747SOL     OW79087   8.635   5.516   1.616
24747SOL    HW179088   8.659   5.576   1.540
24747SOL    HW279089   8.642   5.421   1.586
24748SOL     OW79090   7.765   3.975   1.801
24748SOL    HW179091   7.836   4.046   1.807
24748SOL    HW279092   7.677   4.014   1.829
24749SOL     OW79093   8.914   5.141   0.953
24749SOL    HW179094   8.855   5.147   1.033
24749SOL    HW279095   8.899   5.053   0.907
24750SOL     OW79096   9.115   5.438   0.572
24750SOL    HW179097   9.074   5.415   0.484
24750SOL    HW279098   9.097   5.364   0.637
24751SOL     OW79099   8.046   4.453   0.270
24751SOL    HW179100   8.070   4.522   0.202
24751SOL    HW279101   7.968   4.486   0.324
24752SOL     OW79102   8.729   4.069   0.944
24752SOL    HW179103   8.643   4.019   0.931
24752SOL    HW279104   8.791   4.015   1.000
24753SOL     OW79105   9.024   5.386   0.307
24753SOL    HW179106   9.113   5.432   0.310
24753SOL    HW279107   9.003   5.362   0.212
24754SOL     OW79108   8.255   4.329   1.465
24754SOL    HW179109   8.208   4.326   1.554
24754SOL    HW279110   8.204   4.274   1.399
24755SOL     OW79111   8.421   4.614   1.572
24755SOL    HW179112   8.467   4.530   1.543
24755SOL    HW279113   8.365   4.648   1.497
24756SOL     OW79114   8.439   4.134   1.242
24756SOL    HW179115   8.362   4.168   1.296
24756SOL    HW279116   8.405   4.083   1.163
24757SOL     OW79117   8.489   4.425   0.429
24757SOL    HW179118   8.515   4.421   0.525
24757SOL    HW279119   8.404   4.374   0.415
24758SOL     OW79120   7.524   4.535   0.789
24758SOL    HW179121   7.623   4.523   0.798
24758SOL    HW279122   7.500   4.630   0.810
24759SOL     OW79123   7.578   5.545   1.571
24759SOL    HW179124   7.568   5.530   1.670
24759SOL    HW279125   7.492   5.581   1.535
24760SOL     OW79126   8.313   4.072   0.195
24760SOL    HW179127   8.372   4.135   0.146
24760SOL    HW279128   8.332   3.978   0.166
24761SOL     OW79129   8.810   4.868   0.545
24761SOL    HW179130   8.893   4.839   0.497
24761SOL    HW279131   8.761   4.935   0.489
24762SOL     OW79132   7.998   3.920   0.885
24762SOL    HW179133   7.993   3.915   0.985
24762SOL    HW279134   8.000   4.016   0.856
24763SOL     OW79135   8.456   5.180   0.477
24763SOL    HW179136   8.410   5.252   0.425
24763SOL    HW279137   8.452   5.200   0.575
24764SOL     OW79138   7.799   5.525   0.853
24764SOL    HW179139   7.849   5.439   0.859
24764SOL    HW279140   7.864   5.602   0.850
24765SOL     OW79141   9.243   4.790   0.873
24765SOL    HW179142   9.181   4.775   0.797
24765SOL    HW279143   9.191   4.801   0.958
24766SOL     OW79144   8.675   5.274   1.506
24766SOL    HW179145   8.681   5.197   1.570
24766SOL    HW279146   8.623   5.248   1.426
24767SOL     OW79147   7.769   4.667   0.242
24767SOL    HW179148   7.851   4.706   0.200
24767SOL    HW279149   7.742   4.585   0.193
24768SOL     OW79150   8.906   4.459   0.728
24768SOL    HW179151   8.901   4.394   0.803
24768SOL    HW279152   8.986   4.518   0.741
24769SOL     OW79153   7.909   4.990   1.727
24769SOL    HW179154   7.859   4.991   1.641
24769SOL    HW279155   7.846   4.972   1.803
24770SOL     OW79156   8.559   5.500   0.237
24770SOL    HW179157   8.499   5.438   0.287
24770SOL    HW279158   8.590   5.456   0.152
24771SOL     OW79159   7.650   4.009   1.498
24771SOL    HW179160   7.570   4.069   1.485
24771SOL    HW279161   7.640   3.960   1.584
24772SOL     OW79162   9.080   5.101   0.081
24772SOL    HW179163   9.048   5.195   0.071
24772SOL    HW279164   9.004   5.038   0.069
24773SOL     OW79165   7.912   5.467   0.323
24773SOL    HW179166   7.945   5.506   0.409
24773SOL    HW279167   7.988   5.460   0.258
24774SOL     OW79168   7.697   5.509   1.241
24774SOL    HW179169   7.754   5.444   1.291
24774SOL    HW279170   7.681   5.476   1.148
24775SOL     OW79171   8.388   5.422   0.904
24775SOL    HW179172   8.468   5.365   0.925
24775SOL    HW279173   8.339   5.382   0.827
24776SOL     OW79174   7.830   4.424   0.480
24776SOL    HW179175   7.875   4.334   0.477
24776SOL    HW279176   7.736   4.413   0.513
24777SOL     OW79177   8.062   3.846   0.117
24777SOL    HW179178   8.160   3.824   0.124
24777SOL    HW279179   8.031   3.829   0.024
24778SOL     OW79180   8.229   3.988   1.749
24778SOL    HW179181   8.296   3.927   1.792
24778SOL    HW279182   8.156   4.007   1.814
24779SOL     OW79183   8.336   5.238   1.195
24779SOL    HW179184   8.313   5.213   1.101
24779SOL    HW279185   8.397   5.169   1.234
24780SOL     OW79186   8.251   5.126   0.924
24780SOL    HW179187   8.341   5.140   0.882
24780SOL    HW279188   8.180   5.128   0.853
24781SOL     OW79189   8.370   4.227   0.899
24781SOL    HW179190   8.345   4.218   0.803
24781SOL    HW279191   8.418   4.145   0.930
24782SOL     OW79192   7.987   3.788   0.512
24782SOL    HW179193   7.906   3.789   0.570
24782SOL    HW279194   7.990   3.871   0.457
24783SOL     OW79195   8.882   4.912   0.041
24783SOL    HW179196   8.914   4.836   0.098
24783SOL    HW279197   8.790   4.939   0.071
24784SOL     OW79198   8.524   4.407   1.464
24784SOL    HW179199   8.444   4.346   1.467
24784SOL    HW279200   8.605   4.354   1.440
24785SOL     OW79201   8.675   5.294   0.793
24785SOL    HW179202   8.696   5.368   0.728
24785SOL    HW279203   8.743   5.294   0.866
24786SOL     OW79204   7.907   4.876   0.741
24786SOL    HW179205   7.836   4.849   0.806
24786SOL    HW279206   7.881   4.848   0.648
24787SOL     OW79207   8.719   5.521   0.591
24787SOL    HW179208   8.763   5.585   0.527
24787SOL    HW279209   8.669   5.573   0.661
24788SOL     OW79210   8.480   4.273   0.016
24788SOL    HW179211   8.439   4.355  -0.023
24788SOL    HW279212   8.544   4.299   0.089
24789SOL     OW79213   7.526   4.280   1.386
24789SOL    HW179214   7.618   4.279   1.345
24789SOL    HW279215   7.520   4.354   1.453
24790SOL     OW79216   8.009   3.946   1.147
24790SOL    HW179217   8.047   3.862   1.184
24790SOL    HW279218   7.921   3.965   1.191
24791SOL     OW79219   8.314   4.178   0.642
24791SOL    HW179220   8.282   4.250   0.580
24791SOL    HW279221   8.338   4.097   0.589
24792SOL     OW79222   8.465   3.763   0.753
24792SOL    HW179223   8.393   3.768   0.684
24792SOL    HW279224   8.441   3.694   0.822
24793SOL     OW79225   8.877   4.897   0.867
24793SOL    HW179226   8.822   4.813   0.860
24793SOL    HW279227   8.903   4.926   0.775
24794SOL     OW79228   8.914   4.314   0.992
24794SOL    HW179229   8.884   4.219   0.999
24794SOL    HW279230   8.987   4.330   1.058
24795SOL     OW79231   9.305   4.557   0.377
24795SOL    HW179232   9.347   4.493   0.441
24795SOL    HW279233   9.267   4.506   0.299
24796SOL     OW79234   7.936   5.109   0.174
24796SOL    HW179235   7.849   5.094   0.221
24796SOL    HW279236   7.919   5.135   0.079
24797SOL     OW79237   9.112   5.004   0.657
24797SOL    HW179238   9.211   5.012   0.671
24797SOL    HW279239   9.067   5.088   0.688
24798SOL     OW79240   8.838   4.299   0.078
24798SOL    HW179241   8.784   4.278   0.159
24798SOL    HW279242   8.929   4.258   0.087
24799SOL     OW79243   7.975   3.980   0.328
24799SOL    HW179244   8.002   3.921   0.253
24799SOL    HW279245   7.975   4.075   0.297
24800SOL     OW79246   8.512   5.071   1.340
24800SOL    HW179247   8.432   5.048   1.395
24800SOL    HW279248   8.595   5.045   1.389
24801SOL     OW79249   8.559   4.919   1.100
24801SOL    HW179250   8.519   4.963   1.181
24801SOL    HW279251   8.518   4.956   1.017
24802SOL     OW79252   9.086   4.823   1.079
24802SOL    HW179253   9.091   4.904   1.138
24802SOL    HW279254   9.000   4.825   1.028
24803SOL     OW79255   8.363   3.813   1.402
24803SOL    HW179256   8.388   3.793   1.307
24803SOL    HW279257   8.435   3.869   1.444
24804SOL     OW79258   8.428   4.840   1.719
24804SOL    HW179259   8.329   4.846   1.729
24804SOL    HW279260   8.451   4.760   1.663
24805SOL     OW79261   8.153   4.774   0.368
24805SOL    HW179262   8.139   4.781   0.467
24805SOL    HW279263   8.237   4.723   0.350
24806SOL     OW79264   7.858   4.537   1.251
24806SOL    HW179265   7.944   4.549   1.301
24806SOL    HW279266   7.816   4.450   1.278
24807SOL     OW79267   8.722   4.110   1.262
24807SOL    HW179268   8.743   4.184   1.326
24807SOL    HW279269   8.633   4.127   1.219
24808SOL     OW79270   7.512   5.288   1.331
24808SOL    HW179271   7.466   5.370   1.297
24808SOL    HW279272   7.610   5.307   1.340
24809SOL     OW79273   7.815   4.824   0.501
24809SOL    HW179274   7.808   4.907   0.445
24809SOL    HW279275   7.819   4.744   0.441
24810SOL     OW79276   8.014   4.261   0.865
24810SOL    HW179277   8.026   4.327   0.791
24810SOL    HW279278   8.060   4.295   0.948
24811SOL     OW79279   8.700   5.072   0.388
24811SOL    HW179280   8.750   5.149   0.428
24811SOL    HW279281   8.605   5.074   0.420
24812SOL     OW79282   8.720   5.169   1.142
24812SOL    HW179283   8.767   5.182   1.229
24812SOL    HW279284   8.654   5.095   1.151
24813SOL     OW79285   9.030   4.363   0.472
24813SOL    HW179286   8.999   4.424   0.545
24813SOL    HW279287   9.080   4.415   0.403
24814SOL     OW79288   7.802   5.234   1.329
24814SOL    HW179289   7.781   5.190   1.242
24814SOL    HW279290   7.899   5.260   1.332
24815SOL     OW79291   7.850   4.475   1.598
24815SOL    HW179292   7.918   4.530   1.551
24815SOL    HW279293   7.890   4.387   1.625
24816SOL     OW79294   8.461   3.829   1.770
24816SOL    HW179295   8.467   3.914   1.718
24816SOL    HW279296   8.493   3.753   1.713
24817SOL     OW79297   8.021   4.594   1.029
24817SOL    HW179298   8.065   4.683   1.020
24817SOL    HW279299   7.958   4.594   1.106
24818SOL     OW79300   8.808   4.586   1.045
24818SOL    HW179301   8.733   4.586   0.979
24818SOL    HW279302   8.845   4.494   1.054
24819SOL     OW79303   8.657   4.249   0.275
24819SOL    HW179304   8.670   4.165   0.329
24819SOL    HW279305   8.628   4.323   0.335
24820SOL     OW79306   7.755   3.937   1.231
24820SOL    HW179307   7.732   3.974   1.321
24820SOL    HW279308   7.725   3.842   1.225
24821SOL     OW79309   7.485   5.034   1.282
24821SOL    HW179310   7.538   4.985   1.350
24821SOL    HW279311   7.507   5.132   1.287
24822SOL     OW79312   8.180   4.358   1.064
24822SOL    HW179313   8.239   4.332   0.988
24822SOL    HW279314   8.152   4.454   1.053
24823SOL     OW79315   7.755   3.787   0.618
24823SOL    HW179316   7.744   3.881   0.651
24823SOL    HW279317   7.750   3.724   0.695
24824SOL     OW79318   9.070   4.091   0.374
24824SOL    HW179319   9.072   4.015   0.438
24824SOL    HW279320   9.022   4.168   0.414
24825SOL     OW79321   8.471   4.490   0.966
24825SOL    HW179322   8.486   4.511   1.062
24825SOL    HW279323   8.441   4.395   0.957
24826SOL     OW79324   8.428   5.297   1.700
24826SOL    HW179325   8.408   5.341   1.612
24826SOL    HW279326   8.467   5.206   1.684
24827SOL     OW79327   9.307   5.242   1.605
24827SOL    HW179328   9.321   5.269   1.510
24827SOL    HW279329   9.390   5.264   1.658
24828SOL     OW79330   7.798   4.622   1.804
24828SOL    HW179331   7.874   4.666   1.852
24828SOL    HW279332   7.833   4.575   1.722
24829SOL     OW79333   8.988   3.998   0.125
24829SOL    HW179334   8.927   3.923   0.148
24829SOL    HW279335   9.010   4.050   0.208
24830SOL     OW79336   8.751   4.562   0.042
24830SOL    HW179337   8.785   4.469   0.057
24830SOL    HW279338   8.769   4.589  -0.053
24831SOL     OW79339   8.516   5.057   0.849
24831SOL    HW179340   8.523   4.973   0.794
24831SOL    HW279341   8.578   5.126   0.813
24832SOL     OW79342   7.767   4.534   0.949
24832SOL    HW179343   7.860   4.570   0.954
24832SOL    HW279344   7.761   4.449   1.001
24833SOL     OW79345   7.787   4.233   1.006
24833SOL    HW179346   7.735   4.150   0.989
24833SOL    HW279347   7.864   4.238   0.942
24834SOL     OW79348   8.608   3.931   1.477
24834SOL    HW179349   8.608   3.995   1.554
24834SOL    HW279350   8.636   3.979   1.394
24835SOL     OW79351   7.456   5.050   0.200
24835SOL    HW179352   7.363   5.071   0.169
24835SOL    HW279353   7.466   4.951   0.213
24836SOL     OW79354   7.536   5.525   0.927
24836SOL    HW179355   7.494   5.439   0.900
24836SOL    HW279356   7.630   5.528   0.893
24837SOL     OW79357   7.952   5.292   0.910
24837SOL    HW179358   8.018   5.366   0.919
24837SOL    HW279359   7.996   5.213   0.868
24838SOL     OW79360   8.450   4.520   1.238
24838SOL    HW179361   8.491   4.488   1.324
24838SOL    HW279362   8.354   4.493   1.235
24839SOL     OW79363   7.488   4.268   1.114
24839SOL    HW179364   7.573   4.235   1.073
24839SOL    HW279365   7.501   4.283   1.212
24840SOL     OW79366   7.637   4.244   1.722
24840SOL    HW179367   7.696   4.204   1.652
24840SOL    HW279368   7.579   4.315   1.681
24841SOL     OW79369   8.817   4.674   1.660
24841SOL    HW179370   8.856   4.763   1.680
24841SOL    HW279371   8.827   4.654   1.563
24842SOL     OW79372   8.263   4.296   0.325
24842SOL    HW179373   8.270   4.207   0.279
24842SOL    HW279374   8.169   4.330   0.317
24843SOL     OW79375   9.105   4.328   1.206
24843SOL    HW179376   9.067   4.259   1.268
24843SOL    HW279377   9.187   4.292   1.162
24844SOL     OW79378   8.119   4.188   1.269
24844SOL    HW179379   8.085   4.099   1.239
24844SOL    HW279380   8.145   4.242   1.189
24845SOL     OW79381   8.378   5.402   1.465
24845SOL    HW179382   8.354   5.384   1.370
24845SOL    HW279383   8.408   5.496   1.475
24846SOL     OW79384   7.921   4.224   0.191
24846SOL    HW179385   7.982   4.304   0.195
24846SOL    HW279386   7.826   4.255   0.198
24847SOL     OW79387   7.607   4.861   1.466
24847SOL    HW179388   7.629   4.800   1.542
24847SOL    HW279389   7.617   4.812   1.380
24848SOL     OW79390   8.795   4.783   1.234
24848SOL    HW179391   8.819   4.720   1.160
24848SOL    HW279392   8.705   4.823   1.216
24849SOL     OW79393   9.207   5.471   1.154
24849SOL    HW179394   9.268   5.501   1.081
24849SOL    HW279395   9.169   5.382   1.132
24850SOL     OW79396   8.700   5.455   1.128
24850SOL    HW179397   8.784   5.460   1.074
24850SOL    HW279398   8.677   5.359   1.146
24851SOL     OW79399   7.531   4.982   1.022
24851SOL    HW179400   7.526   4.981   1.122
24851SOL    HW279401   7.448   4.941   0.984
24852SOL     OW79402   8.351   3.810   0.133
24852SOL    HW179403   8.402   3.811   0.047
24852SOL    HW279404   8.407   3.768   0.204
24853SOL     OW79405   9.174   3.859   0.523
24853SOL    HW179406   9.247   3.842   0.456
24853SOL    HW279407   9.143   3.772   0.561
24854SOL     OW79408   8.836   5.297   0.477
24854SOL    HW179409   8.903   5.309   0.403
24854SOL    HW279410   8.796   5.386   0.500
24855SOL     OW79411   7.578   5.518   1.851
24855SOL    HW179412   7.537   5.444   1.904
24855SOL    HW279413   7.642   5.569   1.909
24856SOL     OW79414   8.728   4.651   0.672
24856SOL    HW179415   8.788   4.570   0.674
24856SOL    HW279416   8.768   4.720   0.612
24857SOL     OW79417   8.278   4.997   1.422
24857SOL    HW179418   8.273   5.030   1.517
24857SOL    HW279419   8.192   5.016   1.376
24858SOL     OW79420   8.120   5.340   0.154
24858SOL    HW179421   8.129   5.350   0.055
24858SOL    HW279422   8.080   5.251   0.175
24859SOL     OW79423   7.711   4.050   0.720
24859SOL    HW179424   7.632   4.101   0.686
24859SOL    HW279425   7.702   4.035   0.818
24860SOL     OW79426   8.642   5.336   0.031
24860SOL    HW179427   8.648   5.243   0.068
24860SOL    HW279428   8.583   5.336  -0.049
24861SOL     OW79429   8.270   4.726   1.372
24861SOL    HW179430   8.310   4.725   1.280
24861SOL    HW279431   8.280   4.818   1.412
24862SOL     OW79432   8.364   4.634   0.291
24862SOL    HW179433   8.427   4.672   0.223
24862SOL    HW279434   8.404   4.551   0.330
24863SOL     OW79435   8.952   5.331   0.044
24863SOL    HW179436   8.860   5.368   0.051
24863SOL    HW279437   8.990   5.351  -0.046
24864SOL     OW79438   7.820   5.012   1.490
24864SOL    HW179439   7.807   5.105   1.456
24864SOL    HW279440   7.736   4.960   1.477
24865SOL     OW79441   8.487   4.822   0.696
24865SOL    HW179442   8.417   4.775   0.750
24865SOL    HW279443   8.546   4.754   0.653
24866SOL     OW79444   8.462   3.960   0.971
24866SOL    HW179445   8.454   3.924   0.878
24866SOL    HW279446   8.460   3.884   1.036
24867SOL     OW79447   8.038   5.211   0.491
24867SOL    HW179448   8.080   5.153   0.421
24867SOL    HW279449   7.994   5.290   0.447
24868SOL     OW79450   9.157   4.109   1.381
24868SOL    HW179451   9.230   4.178   1.385
24868SOL    HW279452   9.185   4.034   1.322
24869SOL     OW79453   7.703   5.072   0.290
24869SOL    HW179454   7.607   5.073   0.263
24869SOL    HW279455   7.715   5.125   0.374
24870SOL     OW79456   7.553   4.737   1.726
24870SOL    HW179457   7.476   4.704   1.780
24870SOL    HW279458   7.638   4.707   1.768
24871SOL     OW79459   7.523   4.069   0.033
24871SOL    HW179460   7.431   4.041   0.004
24871SOL    HW279461   7.554   4.146  -0.023
24872SOL     OW79462   8.888   4.580   1.398
24872SOL    HW179463   8.831   4.632   1.335
24872SOL    HW279464   8.984   4.592   1.374
24873SOL     OW79465   7.520   3.890   0.318
24873SOL    HW179466   7.503   3.973   0.264
24873SOL    HW279467   7.610   3.853   0.296
24874SOL     OW79468   8.631   5.059   0.119
24874SOL    HW179469   8.532   5.048   0.121
24874SOL    HW279470   8.665   5.074   0.212
24875SOL     OW79471   8.061   4.566   1.431
24875SOL    HW179472   8.117   4.647   1.414
24875SOL    HW279473   8.120   4.486   1.434
24876SOL     OW79474   8.941   5.491   0.959
24876SOL    HW179475   8.974   5.555   0.890
24876SOL    HW279476   9.007   5.485   1.034
24877SOL     OW79477   8.164   4.289   1.708
24877SOL    HW179478   8.183   4.354   1.782
24877SOL    HW279479   8.224   4.209   1.717
24878SOL     OW79480   8.898   4.944   1.633
24878SOL    HW179481   8.889   4.934   1.732
24878SOL    HW279482   8.994   4.937   1.607
24879SOL     OW79483   9.122   4.607   1.254
24879SOL    HW179484   9.095   4.518   1.217
24879SOL    HW279485   9.123   4.675   1.181
24880SOL     OW79486   8.042   4.469   0.652
24880SOL    HW179487   8.092   4.554   0.633
24880SOL    HW279488   7.954   4.471   0.604
24881SOL     OW79489   9.225   4.066   1.642
24881SOL    HW179490   9.208   4.097   1.548
24881SOL    HW279491   9.141   4.029   1.680
24882SOL     OW79492   8.307   5.098   0.016
24882SOL    HW179493   8.261   5.113   0.104
24882SOL    HW279494   8.351   5.183  -0.014
24883SOL     OW79495   8.109   5.514   0.953
24883SOL    HW179496   8.063   5.602   0.940
24883SOL    HW279497   8.208   5.526   0.946
24884SOL     OW79498   8.307   4.680   0.861
24884SOL    HW179499   8.361   4.611   0.909
24884SOL    HW279500   8.275   4.749   0.927
24885SOL     OW79501   8.531   4.708   0.087
24885SOL    HW179502   8.508   4.761   0.005
24885SOL    HW279503   8.612   4.652   0.068
24886SOL     OW79504   9.309   5.293   0.851
24886SOL    HW179505   9.238   5.281   0.781
24886SOL    HW279506   9.310   5.214   0.911
24887SOL     OW79507   7.669   5.038   1.844
24887SOL    HW179508   7.604   4.965   1.823
24887SOL    HW279509   7.673   5.052   1.942
24888SOL     OW79510   8.120   5.115   1.624
24888SOL    HW179511   8.042   5.065   1.662
24888SOL    HW279512   8.117   5.210   1.655
24889SOL     OW79513   7.876   4.148   0.520
24889SOL    HW179514   7.906   4.076   0.458
24889SOL    HW279515   7.837   4.108   0.603
24890SOL     OW79516   9.153   5.211   1.104
24890SOL    HW179517   9.060   5.186   1.077
24890SOL    HW279518   9.179   5.161   1.186
24891SOL     OW79519   7.765   4.271   1.280
24891SOL    HW179520   7.803   4.212   1.352
24891SOL    HW279521   7.805   4.245   1.192
24892SOL     OW79522   8.260   5.310   0.687
24892SOL    HW179523   8.292   5.320   0.593
24892SOL    HW279524   8.181   5.248   0.689
24893SOL     OW79525   8.449   3.758   1.154
24893SOL    HW179526   8.386   3.686   1.123
24893SOL    HW279527   8.542   3.722   1.154
24894SOL     OW79528   8.218   5.054   0.301
24894SOL    HW179529   8.172   4.967   0.318
24894SOL    HW279530   8.309   5.051   0.342
24895SOL     OW79531   8.066   5.291   1.284
24895SOL    HW179532   8.061   5.373   1.341
24895SOL    HW279533   8.155   5.288   1.239
24896SOL     OW79534   8.748   4.177   0.691
24896SOL    HW179535   8.689   4.257   0.695
24896SOL    HW279536   8.763   4.142   0.784
24897SOL     OW79537   7.487   4.801   0.300
24897SOL    HW179538   7.586   4.790   0.291
24897SOL    HW279539   7.447   4.715   0.332
24898SOL     OW79540   8.323   5.370   0.337
24898SOL    HW179541   8.246   5.335   0.283
24898SOL    HW279542   8.291   5.441   0.399
24899SOL     OW79543   7.678   4.352   1.975
24899SOL    HW179544   7.585   4.350   2.012
24899SOL    HW279545   7.679   4.313   1.883
24900SOL     OW79546   7.673   3.999   2.858
24900SOL    HW179547   7.708   3.982   2.950
24900SOL    HW279548   7.585   3.954   2.846
24901SOL     OW79549   7.467   4.092   2.509
24901SOL    HW179550   7.385   4.135   2.548
24901SOL    HW279551   7.439   4.019   2.446
24902SOL     OW79552   8.017   4.999   3.027
24902SOL    HW179553   7.924   4.992   2.990
24902SOL    HW279554   8.028   5.088   3.071
24903SOL     OW79555   9.003   5.235   2.565
24903SOL    HW179556   8.946   5.219   2.646
24903SOL    HW279557   8.944   5.245   2.485
24904SOL     OW79558   8.583   4.427   2.579
24904SOL    HW179559   8.640   4.505   2.554
24904SOL    HW279560   8.523   4.453   2.655
24905SOL     OW79561   9.203   4.331   2.093
24905SOL    HW179562   9.191   4.318   1.994
24905SOL    HW279563   9.173   4.250   2.142
24906SOL     OW79564   8.216   4.868   2.885
24906SOL    HW179565   8.138   4.885   2.945
24906SOL    HW279566   8.250   4.955   2.849
24907SOL     OW79567   8.298   4.522   3.685
24907SOL    HW179568   8.294   4.598   3.750
24907SOL    HW279569   8.320   4.558   3.594
24908SOL     OW79570   8.133   4.736   2.527
24908SOL    HW179571   8.202   4.720   2.597
24908SOL    HW279572   8.060   4.793   2.565
24909SOL     OW79573   7.783   5.159   2.923
24909SOL    HW179574   7.705   5.128   2.870
24909SOL    HW279575   7.841   5.217   2.866
24910SOL     OW79576   8.908   5.229   3.201
24910SOL    HW179577   8.932   5.323   3.227
24910SOL    HW279578   8.892   5.175   3.283
24911SOL     OW79579   9.051   4.171   2.599
24911SOL    HW179580   8.977   4.217   2.549
24911SOL    HW279581   9.102   4.239   2.652
24912SOL     OW79582   7.679   5.437   2.345
24912SOL    HW179583   7.713   5.514   2.399
24912SOL    HW279584   7.723   5.437   2.255
24913SOL     OW79585   8.575   5.065   3.552
24913SOL    HW179586   8.622   5.065   3.640
24913SOL    HW279587   8.527   4.978   3.541
24914SOL     OW79588   7.678   5.158   2.400
24914SOL    HW179589   7.652   5.254   2.400
24914SOL    HW279590   7.607   5.104   2.445
24915SOL     OW79591   7.688   4.815   2.748
24915SOL    HW179592   7.702   4.731   2.800
24915SOL    HW279593   7.633   4.879   2.803
24916SOL     OW79594   8.068   5.510   3.301
24916SOL    HW179595   7.976   5.493   3.336
24916SOL    HW279596   8.096   5.602   3.327
24917SOL     OW79597   8.054   4.688   1.985
24917SOL    HW179598   8.061   4.772   1.931
24917SOL    HW279599   8.100   4.701   2.073
24918SOL     OW79600   9.042   3.838   3.342
24918SOL    HW179601   9.024   3.905   3.270
24918SOL    HW279602   9.039   3.884   3.431
24919SOL     OW79603   7.570   4.367   2.425
24919SOL    HW179604   7.525   4.279   2.442
24919SOL    HW279605   7.569   4.421   2.509
24920SOL     OW79606   9.290   5.491   2.221
24920SOL    HW179607   9.344   5.462   2.301
24920SOL    HW279608   9.320   5.581   2.192
24921SOL     OW79609   7.475   5.320   1.979
24921SOL    HW179610   7.456   5.224   2.000
24921SOL    HW279611   7.442   5.378   2.054
24922SOL     OW79612   9.137   4.646   2.474
24922SOL    HW179613   9.232   4.617   2.482
24922SOL    HW279614   9.129   4.711   2.399
24923SOL     OW79615   9.089   4.832   2.294
24923SOL    HW179616   9.175   4.834   2.242
24923SOL    HW279617   9.103   4.879   2.382
24924SOL     OW79618   7.561   4.461   3.459
24924SOL    HW179619   7.649   4.448   3.504
24924SOL    HW279620   7.548   4.558   3.437
24925SOL     OW79621   8.061   5.089   2.588
24925SOL    HW179622   8.012   5.002   2.597
24925SOL    HW279623   8.038   5.132   2.501
24926SOL     OW79624   8.741   4.952   3.285
24926SOL    HW179625   8.778   4.879   3.227
24926SOL    HW279626   8.793   4.957   3.370
24927SOL     OW79627   8.257   3.728   2.364
24927SOL    HW179628   8.297   3.819   2.355
24927SOL    HW279629   8.157   3.736   2.370
24928SOL     OW79630   7.645   4.700   3.126
24928SOL    HW179631   7.734   4.655   3.112
24928SOL    HW279632   7.572   4.635   3.107
24929SOL     OW79633   8.973   4.723   2.052
24929SOL    HW179634   8.910   4.647   2.065
24929SOL    HW279635   9.021   4.741   2.138
24930SOL     OW79636   8.635   5.516   3.478
24930SOL    HW179637   8.659   5.576   3.402
24930SOL    HW279638   8.642   5.421   3.448
24931SOL     OW79639   7.765   3.975   3.663
24931SOL    HW179640   7.836   4.046   3.669
24931SOL    HW279641   7.677   4.014   3.691
24932SOL     OW79642   8.914   5.141   2.815
24932SOL    HW179643   8.855   5.147   2.895
24932SOL    HW279644   8.899   5.053   2.769
24933SOL     OW79645   9.115   5.438   2.434
24933SOL    HW179646   9.074   5.415   2.346
24933SOL    HW279647   9.097   5.364   2.499
24934SOL     OW79648   8.046   4.453   2.132
24934SOL    HW179649   8.070   4.522   2.064
24934SOL    HW279650   7.968   4.486   2.186
24935SOL     OW79651   8.729   4.069   2.806
24935SOL    HW179652   8.643   4.019   2.793
24935SOL    HW279653   8.791   4.015   2.862
24936SOL     OW79654   9.024   5.386   2.169
24936SOL    HW179655   9.113   5.432   2.172
24936SOL    HW279656   9.003   5.362   2.074
24937SOL     OW79657   8.255   4.329   3.327
24937SOL    HW179658   8.208   4.326   3.416
24937SOL    HW279659   8.204   4.274   3.261
24938SOL     OW79660   8.842   4.193   3.536
24938SOL    HW179661   8.822   4.236   3.624
24938SOL    HW279662   8.920   4.131   3.545
24939SOL     OW79663   8.421   4.614   3.434
24939SOL    HW179664   8.467   4.530   3.405
24939SOL    HW279665   8.365   4.648   3.359
24940SOL     OW79666   8.489   4.425   2.291
24940SOL    HW179667   8.515   4.421   2.387
24940SOL    HW279668   8.404   4.374   2.277
24941SOL     OW79669   7.524   4.535   2.651
24941SOL    HW179670   7.623   4.523   2.660
24941SOL    HW279671   7.500   4.630   2.672
24942SOL     OW79672   7.578   5.545   3.433
24942SOL    HW179673   7.568   5.530   3.532
24942SOL    HW279674   7.492   5.581   3.397
24943SOL     OW79675   8.313   4.072   2.057
24943SOL    HW179676   8.372   4.135   2.008
24943SOL    HW279677   8.332   3.978   2.028
24944SOL     OW79678   9.167   4.309   3.693
24944SOL    HW179679   9.141   4.398   3.657
24944SOL    HW279680   9.165   4.241   3.620
24945SOL     OW79681   8.810   4.868   2.407
24945SOL    HW179682   8.893   4.839   2.359
24945SOL    HW279683   8.761   4.935   2.351
24946SOL     OW79684   8.456   5.180   2.339
24946SOL    HW179685   8.410   5.252   2.287
24946SOL    HW279686   8.452   5.200   2.437
24947SOL     OW79687   9.243   4.790   2.735
24947SOL    HW179688   9.181   4.775   2.659
24947SOL    HW279689   9.191   4.801   2.820
24948SOL     OW79690   8.675   5.274   3.368
24948SOL    HW179691   8.681   5.197   3.432
24948SOL    HW279692   8.623   5.248   3.288
24949SOL     OW79693   7.769   4.667   2.104
24949SOL    HW179694   7.851   4.706   2.062
24949SOL    HW279695   7.742   4.585   2.055
24950SOL     OW79696   8.906   4.459   2.590
24950SOL    HW179697   8.901   4.394   2.665
24950SOL    HW279698   8.986   4.518   2.603
24951SOL     OW79699   8.559   5.500   2.099
24951SOL    HW179700   8.499   5.438   2.149
24951SOL    HW279701   8.590   5.456   2.014
24952SOL     OW79702   7.650   4.009   3.360
24952SOL    HW179703   7.570   4.069   3.347
24952SOL    HW279704   7.640   3.960   3.446
24953SOL     OW79705   9.080   5.101   1.943
24953SOL    HW179706   9.048   5.195   1.933
24953SOL    HW279707   9.004   5.038   1.931
24954SOL     OW79708   8.848   3.831   2.288
24954SOL    HW179709   8.824   3.794   2.198
24954SOL    HW279710   8.947   3.847   2.292
24955SOL     OW79711   7.697   5.509   3.103
24955SOL    HW179712   7.754   5.444   3.153
24955SOL    HW279713   7.681   5.476   3.010
24956SOL     OW79714   8.388   5.422   2.766
24956SOL    HW179715   8.468   5.365   2.787
24956SOL    HW279716   8.339   5.382   2.689
24957SOL     OW79717   7.830   4.424   2.342
24957SOL    HW179718   7.875   4.334   2.339
24957SOL    HW279719   7.736   4.413   2.375
24958SOL     OW79720   8.995   3.946   3.591
24958SOL    HW179721   8.990   3.983   3.683
24958SOL    HW279722   8.923   3.877   3.579
24959SOL     OW79723   8.062   3.846   1.979
24959SOL    HW179724   8.160   3.824   1.986
24959SOL    HW279725   8.031   3.829   1.886
24960SOL     OW79726   8.229   3.988   3.611
24960SOL    HW179727   8.296   3.927   3.654
24960SOL    HW279728   8.156   4.007   3.676
24961SOL     OW79729   8.336   5.238   3.057
24961SOL    HW179730   8.313   5.213   2.963
24961SOL    HW279731   8.397   5.169   3.096
24962SOL     OW79732   8.799   4.314   3.295
24962SOL    HW179733   8.827   4.271   3.380
24962SOL    HW279734   8.824   4.410   3.296
24963SOL     OW79735   8.251   5.126   2.786
24963SOL    HW179736   8.341   5.140   2.744
24963SOL    HW279737   8.180   5.128   2.715
24964SOL     OW79738   8.370   4.227   2.761
24964SOL    HW179739   8.345   4.218   2.665
24964SOL    HW279740   8.418   4.145   2.792
24965SOL     OW79741   7.987   3.788   2.374
24965SOL    HW179742   7.906   3.789   2.432
24965SOL    HW279743   7.990   3.871   2.319
24966SOL     OW79744   8.882   4.912   1.903
24966SOL    HW179745   8.914   4.836   1.960
24966SOL    HW279746   8.790   4.939   1.933
24967SOL     OW79747   7.745   3.759   2.033
24967SOL    HW179748   7.794   3.843   2.012
24967SOL    HW279749   7.807   3.694   2.078
24968SOL     OW79750   8.383   3.960   2.342
24968SOL    HW179751   8.335   4.001   2.264
24968SOL    HW279752   8.482   3.958   2.323
24969SOL     OW79753   8.524   4.407   3.326
24969SOL    HW179754   8.444   4.346   3.329
24969SOL    HW279755   8.605   4.354   3.302
24970SOL     OW79756   8.675   5.294   2.655
24970SOL    HW179757   8.696   5.368   2.590
24970SOL    HW279758   8.743   5.294   2.728
24971SOL     OW79759   7.907   4.876   2.603
24971SOL    HW179760   7.836   4.849   2.668
24971SOL    HW279761   7.881   4.848   2.510
24972SOL     OW79762   8.719   5.521   2.453
24972SOL    HW179763   8.763   5.585   2.389
24972SOL    HW279764   8.669   5.573   2.523
24973SOL     OW79765   8.480   4.273   1.878
24973SOL    HW179766   8.439   4.355   1.839
24973SOL    HW279767   8.544   4.299   1.951
24974SOL     OW79768   7.526   4.280   3.248
24974SOL    HW179769   7.618   4.279   3.207
24974SOL    HW279770   7.520   4.354   3.315
24975SOL     OW79771   8.314   4.178   2.504
24975SOL    HW179772   8.282   4.250   2.442
24975SOL    HW279773   8.338   4.097   2.451
24976SOL     OW79774   8.465   3.763   2.615
24976SOL    HW179775   8.393   3.768   2.546
24976SOL    HW279776   8.441   3.694   2.684
24977SOL     OW79777   8.877   4.897   2.729
24977SOL    HW179778   8.822   4.813   2.722
24977SOL    HW279779   8.903   4.926   2.637
24978SOL     OW79780   8.914   4.314   2.854
24978SOL    HW179781   8.884   4.219   2.861
24978SOL    HW279782   8.987   4.330   2.920
24979SOL     OW79783   9.305   4.557   2.239
24979SOL    HW179784   9.347   4.493   2.303
24979SOL    HW279785   9.267   4.506   2.161
24980SOL     OW79786   7.936   5.109   2.036
24980SOL    HW179787   7.849   5.094   2.083
24980SOL    HW279788   7.919   5.135   1.941
24981SOL     OW79789   9.112   5.004   2.519
24981SOL    HW179790   9.211   5.012   2.533
24981SOL    HW279791   9.067   5.088   2.550
24982SOL     OW79792   7.975   3.980   2.190
24982SOL    HW179793   8.002   3.921   2.115
24982SOL    HW279794   7.975   4.075   2.159
24983SOL     OW79795   9.202   4.947   3.450
24983SOL    HW179796   9.293   4.908   3.437
24983SOL    HW279797   9.210   5.043   3.474
24984SOL     OW79798   8.512   5.071   3.202
24984SOL    HW179799   8.432   5.048   3.257
24984SOL    HW279800   8.595   5.045   3.251
24985SOL     OW79801   8.559   4.919   2.962
24985SOL    HW179802   8.519   4.963   3.043
24985SOL    HW279803   8.518   4.956   2.879
24986SOL     OW79804   9.086   4.823   2.941
24986SOL    HW179805   9.091   4.904   3.000
24986SOL    HW279806   9.000   4.825   2.890
24987SOL     OW79807   8.428   4.840   3.581
24987SOL    HW179808   8.329   4.846   3.591
24987SOL    HW279809   8.451   4.760   3.525
24988SOL     OW79810   8.153   4.774   2.230
24988SOL    HW179811   8.139   4.781   2.329
24988SOL    HW279812   8.237   4.723   2.212
24989SOL     OW79813   7.858   4.537   3.113
24989SOL    HW179814   7.944   4.549   3.163
24989SOL    HW279815   7.816   4.450   3.140
24990SOL     OW79816   8.722   4.110   3.124
24990SOL    HW179817   8.743   4.184   3.188
24990SOL    HW279818   8.633   4.127   3.081
24991SOL     OW79819   7.512   5.288   3.193
24991SOL    HW179820   7.466   5.370   3.159
24991SOL    HW279821   7.610   5.307   3.202
24992SOL     OW79822   7.815   4.824   2.363
24992SOL    HW179823   7.808   4.907   2.307
24992SOL    HW279824   7.819   4.744   2.303
24993SOL     OW79825   8.014   4.261   2.727
24993SOL    HW179826   8.026   4.327   2.653
24993SOL    HW279827   8.060   4.295   2.810
24994SOL     OW79828   8.700   5.072   2.250
24994SOL    HW179829   8.750   5.149   2.290
24994SOL    HW279830   8.605   5.074   2.282
24995SOL     OW79831   8.720   5.169   3.004
24995SOL    HW179832   8.767   5.182   3.091
24995SOL    HW279833   8.654   5.095   3.013
24996SOL     OW79834   9.030   4.363   2.334
24996SOL    HW179835   8.999   4.424   2.407
24996SOL    HW279836   9.080   4.415   2.265
24997SOL     OW79837   7.802   5.234   3.191
24997SOL    HW179838   7.781   5.190   3.104
24997SOL    HW279839   7.899   5.260   3.194
24998SOL     OW79840   7.850   4.475   3.460
24998SOL    HW179841   7.918   4.530   3.413
24998SOL    HW279842   7.890   4.387   3.487
24999SOL     OW79843   9.035   4.503   3.532
24999SOL    HW179844   8.943   4.541   3.527
24999SOL    HW279845   9.095   4.550   3.467
25000SOL     OW79846   8.461   3.829   3.632
25000SOL    HW179847   8.467   3.914   3.580
25000SOL    HW279848   8.493   3.753   3.575
25001SOL     OW79849   7.952   3.774   3.602
25001SOL    HW179850   7.910   3.717   3.532
25001SOL    HW279851   7.886   3.843   3.634
25002SOL     OW79852   8.021   4.594   2.891
25002SOL    HW179853   8.065   4.683   2.882
25002SOL    HW279854   7.958   4.594   2.968
25003SOL     OW79855   8.808   4.586   2.907
25003SOL    HW179856   8.733   4.586   2.841
25003SOL    HW279857   8.845   4.494   2.916
25004SOL     OW79858   8.657   4.249   2.137
25004SOL    HW179859   8.670   4.165   2.191
25004SOL    HW279860   8.628   4.323   2.197
25005SOL     OW79861   7.755   3.937   3.093
25005SOL    HW179862   7.732   3.974   3.183
25005SOL    HW279863   7.725   3.842   3.087
25006SOL     OW79864   7.485   5.034   3.144
25006SOL    HW179865   7.538   4.985   3.212
25006SOL    HW279866   7.507   5.132   3.149
25007SOL     OW79867   8.180   4.358   2.926
25007SOL    HW179868   8.239   4.332   2.850
25007SOL    HW279869   8.152   4.454   2.915
25008SOL     OW79870   9.176   4.659   3.716
25008SOL    HW179871   9.130   4.652   3.627
25008SOL    HW279872   9.114   4.703   3.782
25009SOL     OW79873   7.755   3.787   2.480
25009SOL    HW179874   7.744   3.881   2.513
25009SOL    HW279875   7.750   3.724   2.557
25010SOL     OW79876   9.070   4.091   2.236
25010SOL    HW179877   9.072   4.015   2.300
25010SOL    HW279878   9.022   4.168   2.276
25011SOL     OW79879   8.471   4.490   2.828
25011SOL    HW179880   8.486   4.511   2.924
25011SOL    HW279881   8.441   4.395   2.819
25012SOL     OW79882   8.428   5.297   3.562
25012SOL    HW179883   8.408   5.341   3.474
25012SOL    HW279884   8.467   5.206   3.546
25013SOL     OW79885   9.307   5.242   3.467
25013SOL    HW179886   9.321   5.269   3.372
25013SOL    HW279887   9.390   5.264   3.520
25014SOL     OW79888   7.798   4.622   3.666
25014SOL    HW179889   7.874   4.666   3.714
25014SOL    HW279890   7.833   4.575   3.584
25015SOL     OW79891   8.988   3.998   1.987
25015SOL    HW179892   8.927   3.923   2.010
25015SOL    HW279893   9.010   4.050   2.070
25016SOL     OW79894   8.751   4.562   1.904
25016SOL    HW179895   8.785   4.469   1.919
25016SOL    HW279896   8.769   4.589   1.809
25017SOL     OW79897   8.516   5.057   2.711
25017SOL    HW179898   8.523   4.973   2.656
25017SOL    HW279899   8.578   5.126   2.675
25018SOL     OW79900   7.767   4.534   2.811
25018SOL    HW179901   7.860   4.570   2.816
25018SOL    HW279902   7.761   4.449   2.863
25019SOL     OW79903   7.787   4.233   2.868
25019SOL    HW179904   7.735   4.150   2.851
25019SOL    HW279905   7.864   4.238   2.804
25020SOL     OW79906   8.586   4.104   3.540
25020SOL    HW179907   8.541   4.167   3.604
25020SOL    HW279908   8.679   4.135   3.523
25021SOL     OW79909   8.608   3.931   3.339
25021SOL    HW179910   8.608   3.995   3.416
25021SOL    HW279911   8.636   3.979   3.256
25022SOL     OW79912   7.456   5.050   2.062
25022SOL    HW179913   7.363   5.071   2.031
25022SOL    HW279914   7.466   4.951   2.075
25023SOL     OW79915   7.536   5.525   2.789
25023SOL    HW179916   7.494   5.439   2.762
25023SOL    HW279917   7.630   5.528   2.755
25024SOL     OW79918   8.450   4.520   3.100
25024SOL    HW179919   8.491   4.488   3.186
25024SOL    HW279920   8.354   4.493   3.097
25025SOL     OW79921   7.488   4.268   2.976
25025SOL    HW179922   7.573   4.235   2.935
25025SOL    HW279923   7.501   4.283   3.074
25026SOL     OW79924   7.637   4.244   3.584
25026SOL    HW179925   7.696   4.204   3.514
25026SOL    HW279926   7.579   4.315   3.543
25027SOL     OW79927   8.817   4.674   3.522
25027SOL    HW179928   8.856   4.763   3.542
25027SOL    HW279929   8.827   4.654   3.425
25028SOL     OW79930   8.263   4.296   2.187
25028SOL    HW179931   8.270   4.207   2.141
25028SOL    HW279932   8.169   4.330   2.179
25029SOL     OW79933   9.105   4.328   3.068
25029SOL    HW179934   9.067   4.259   3.130
25029SOL    HW279935   9.187   4.292   3.024
25030SOL     OW79936   7.700   5.288   3.606
25030SOL    HW179937   7.670   5.345   3.682
25030SOL    HW279938   7.693   5.191   3.632
25031SOL     OW79939   8.378   5.402   3.327
25031SOL    HW179940   8.354   5.384   3.232
25031SOL    HW279941   8.408   5.496   3.337
25032SOL     OW79942   7.921   4.224   2.053
25032SOL    HW179943   7.982   4.304   2.057
25032SOL    HW279944   7.826   4.255   2.060
25033SOL     OW79945   7.607   4.861   3.328
25033SOL    HW179946   7.629   4.800   3.404
25033SOL    HW279947   7.617   4.812   3.242
25034SOL     OW79948   8.795   4.783   3.096
25034SOL    HW179949   8.819   4.720   3.022
25034SOL    HW279950   8.705   4.823   3.078
25035SOL     OW79951   8.750   4.579   2.171
25035SOL    HW179952   8.664   4.548   2.213
25035SOL    HW279953   8.746   4.565   2.072
25036SOL     OW79954   9.207   5.471   3.016
25036SOL    HW179955   9.268   5.501   2.943
25036SOL    HW279956   9.169   5.382   2.994
25037SOL     OW79957   8.700   5.455   2.990
25037SOL    HW179958   8.784   5.460   2.936
25037SOL    HW279959   8.677   5.359   3.008
25038SOL     OW79960   7.531   4.982   2.884
25038SOL    HW179961   7.526   4.981   2.984
25038SOL    HW279962   7.448   4.941   2.846
25039SOL     OW79963   8.136   5.386   3.578
25039SOL    HW179964   8.080   5.467   3.587
25039SOL    HW279965   8.188   5.390   3.492
25040SOL     OW79966   9.174   3.859   2.385
25040SOL    HW179967   9.247   3.842   2.318
25040SOL    HW279968   9.143   3.772   2.423
25041SOL     OW79969   8.836   5.297   2.339
25041SOL    HW179970   8.903   5.309   2.265
25041SOL    HW279971   8.796   5.386   2.362
25042SOL     OW79972   7.578   5.518   3.713
25042SOL    HW179973   7.537   5.444   3.766
25042SOL    HW279974   7.642   5.569   3.771
25043SOL     OW79975   8.728   4.651   2.534
25043SOL    HW179976   8.788   4.570   2.536
25043SOL    HW279977   8.768   4.720   2.474
25044SOL     OW79978   8.278   4.997   3.284
25044SOL    HW179979   8.273   5.030   3.379
25044SOL    HW279980   8.192   5.016   3.238
25045SOL     OW79981   9.098   5.444   3.256
25045SOL    HW179982   9.151   5.454   3.172
25045SOL    HW279983   9.071   5.534   3.290
25046SOL     OW79984   9.289   3.899   2.825
25046SOL    HW179985   9.328   3.814   2.789
25046SOL    HW279986   9.191   3.901   2.806
25047SOL     OW79987   7.711   4.050   2.582
25047SOL    HW179988   7.632   4.101   2.548
25047SOL    HW279989   7.702   4.035   2.680
25048SOL     OW79990   8.642   5.336   1.893
25048SOL    HW179991   8.648   5.243   1.930
25048SOL    HW279992   8.583   5.336   1.813
25049SOL     OW79993   8.270   4.726   3.234
25049SOL    HW179994   8.310   4.725   3.142
25049SOL    HW279995   8.280   4.818   3.274
25050SOL     OW79996   8.364   4.634   2.153
25050SOL    HW179997   8.427   4.672   2.085
25050SOL    HW279998   8.404   4.551   2.192
25051SOL     OW79999   7.820   5.012   3.352
25051SOL    HW180000   7.807   5.105   3.318
25051SOL    HW280001   7.736   4.960   3.339
25052SOL     OW80002   9.062   5.016   3.151
25052SOL    HW180003   9.122   5.019   3.231
25052SOL    HW280004   8.987   5.080   3.164
25053SOL     OW80005   8.487   4.822   2.558
25053SOL    HW180006   8.417   4.775   2.612
25053SOL    HW280007   8.546   4.754   2.515
25054SOL     OW80008   8.462   3.960   2.833
25054SOL    HW180009   8.454   3.924   2.740
25054SOL    HW280010   8.460   3.884   2.898
25055SOL     OW80011   8.038   5.211   2.353
25055SOL    HW180012   8.080   5.153   2.283
25055SOL    HW280013   7.994   5.290   2.309
25056SOL     OW80014   9.157   4.109   3.243
25056SOL    HW180015   9.230   4.178   3.247
25056SOL    HW280016   9.185   4.034   3.184
25057SOL     OW80017   7.703   5.072   2.152
25057SOL    HW180018   7.607   5.073   2.125
25057SOL    HW280019   7.715   5.125   2.236
25058SOL     OW80020   7.553   4.737   3.588
25058SOL    HW180021   7.476   4.704   3.642
25058SOL    HW280022   7.638   4.707   3.630
25059SOL     OW80023   7.523   4.069   1.895
25059SOL    HW180024   7.431   4.041   1.866
25059SOL    HW280025   7.554   4.146   1.839
25060SOL     OW80026   8.888   4.580   3.260
25060SOL    HW180027   8.831   4.632   3.197
25060SOL    HW280028   8.984   4.592   3.236
25061SOL     OW80029   7.520   3.890   2.180
25061SOL    HW180030   7.503   3.973   2.126
25061SOL    HW280031   7.610   3.853   2.158
25062SOL     OW80032   8.631   5.059   1.981
25062SOL    HW180033   8.532   5.048   1.983
25062SOL    HW280034   8.665   5.074   2.074
25063SOL     OW80035   8.061   4.566   3.293
25063SOL    HW180036   8.117   4.647   3.276
25063SOL    HW280037   8.120   4.486   3.296
25064SOL     OW80038   8.941   5.491   2.821
25064SOL    HW180039   8.974   5.555   2.752
25064SOL    HW280040   9.007   5.485   2.896
25065SOL     OW80041   8.164   4.289   3.570
25065SOL    HW180042   8.183   4.354   3.644
25065SOL    HW280043   8.224   4.209   3.579
25066SOL     OW80044   8.898   4.944   3.495
25066SOL    HW180045   8.889   4.934   3.594
25066SOL    HW280046   8.994   4.937   3.469
25067SOL     OW80047   7.838   5.465   3.422
25067SOL    HW180048   7.747   5.506   3.420
25067SOL    HW280049   7.831   5.371   3.454
25068SOL     OW80050   9.122   4.607   3.116
25068SOL    HW180051   9.095   4.518   3.079
25068SOL    HW280052   9.123   4.675   3.043
25069SOL     OW80053   8.673   4.049   2.311
25069SOL    HW180054   8.738   3.975   2.300
25069SOL    HW280055   8.693   4.099   2.395
25070SOL     OW80056   8.042   4.469   2.514
25070SOL    HW180057   8.092   4.554   2.495
25070SOL    HW280058   7.954   4.471   2.466
25071SOL     OW80059   9.225   4.066   3.504
25071SOL    HW180060   9.208   4.097   3.410
25071SOL    HW280061   9.141   4.029   3.542
25072SOL     OW80062   9.178   4.658   3.379
25072SOL    HW180063   9.216   4.749   3.394
25072SOL    HW280064   9.170   4.641   3.280
25073SOL     OW80065   8.307   5.098   1.878
25073SOL    HW180066   8.261   5.113   1.966
25073SOL    HW280067   8.351   5.183   1.848
25074SOL     OW80068   8.307   4.680   2.723
25074SOL    HW180069   8.361   4.611   2.771
25074SOL    HW280070   8.275   4.749   2.789
25075SOL     OW80071   8.531   4.708   1.949
25075SOL    HW180072   8.508   4.761   1.867
25075SOL    HW280073   8.612   4.652   1.930
25076SOL     OW80074   9.309   5.293   2.713
25076SOL    HW180075   9.238   5.281   2.643
25076SOL    HW280076   9.310   5.214   2.773
25077SOL     OW80077   7.669   5.038   3.706
25077SOL    HW180078   7.604   4.965   3.685
25077SOL    HW280079   7.673   5.052   3.804
25078SOL     OW80080   7.527   4.964   2.515
25078SOL    HW180081   7.526   4.917   2.603
25078SOL    HW280082   7.609   4.936   2.464
25079SOL     OW80083   9.272   3.916   3.089
25079SOL    HW180084   9.268   3.826   3.133
25079SOL    HW280085   9.275   3.905   2.990
25080SOL     OW80086   7.876   4.148   2.382
25080SOL    HW180087   7.906   4.076   2.320
25080SOL    HW280088   7.837   4.108   2.465
25081SOL     OW80089   9.153   5.211   2.966
25081SOL    HW180090   9.060   5.186   2.939
25081SOL    HW280091   9.179   5.161   3.048
25082SOL     OW80092   7.765   4.271   3.142
25082SOL    HW180093   7.803   4.212   3.214
25082SOL    HW280094   7.805   4.245   3.054
25083SOL     OW80095   8.260   5.310   2.549
25083SOL    HW180096   8.292   5.320   2.455
25083SOL    HW280097   8.181   5.248   2.551
25084SOL     OW80098   8.872   3.938   2.974
25084SOL    HW180099   8.924   3.873   3.029
25084SOL    HW280100   8.823   4.001   3.035
25085SOL     OW80101   8.449   3.758   3.016
25085SOL    HW180102   8.386   3.686   2.985
25085SOL    HW280103   8.542   3.722   3.016
25086SOL     OW80104   8.218   5.054   2.163
25086SOL    HW180105   8.172   4.967   2.180
25086SOL    HW280106   8.309   5.051   2.204
25087SOL     OW80107   8.066   5.291   3.146
25087SOL    HW180108   8.061   5.373   3.203
25087SOL    HW280109   8.155   5.288   3.101
25088SOL     OW80110   8.800   3.776   2.030
25088SOL    HW180111   8.835   3.735   1.946
25088SOL    HW280112   8.710   3.738   2.050
25089SOL     OW80113   8.748   4.177   2.553
25089SOL    HW180114   8.689   4.257   2.557
25089SOL    HW280115   8.763   4.142   2.646
25090SOL     OW80116   9.041   3.945   2.744
25090SOL    HW180117   8.957   3.944   2.798
25090SOL    HW280118   9.043   4.028   2.688
25091SOL     OW80119   7.487   4.801   2.162
25091SOL    HW180120   7.586   4.790   2.153
25091SOL    HW280121   7.447   4.715   2.194
25092SOL     OW80122   8.323   5.370   2.199
25092SOL    HW180123   8.246   5.335   2.145
25092SOL    HW280124   8.291   5.441   2.261
25093SOL     OW80125   7.678   4.352   3.837
25093SOL    HW180126   7.585   4.350   3.874
25093SOL    HW280127   7.679   4.313   3.745
25094SOL     OW80128   7.673   3.999   4.720
25094SOL    HW180129   7.708   3.982   4.812
25094SOL    HW280130   7.585   3.954   4.708
25095SOL     OW80131   7.467   4.092   4.371
25095SOL    HW180132   7.385   4.135   4.410
25095SOL    HW280133   7.439   4.019   4.308
25096SOL     OW80134   8.017   4.999   4.889
25096SOL    HW180135   7.924   4.992   4.852
25096SOL    HW280136   8.028   5.088   4.933
25097SOL     OW80137   8.583   4.427   4.441
25097SOL    HW180138   8.640   4.505   4.416
25097SOL    HW280139   8.523   4.453   4.517
25098SOL     OW80140   9.203   4.331   3.955
25098SOL    HW180141   9.191   4.318   3.856
25098SOL    HW280142   9.173   4.250   4.004
25099SOL     OW80143   8.216   4.868   4.747
25099SOL    HW180144   8.138   4.885   4.807
25099SOL    HW280145   8.250   4.955   4.711
25100SOL     OW80146   8.298   4.522   5.547
25100SOL    HW180147   8.294   4.598   5.612
25100SOL    HW280148   8.320   4.558   5.456
25101SOL     OW80149   8.133   4.736   4.389
25101SOL    HW180150   8.202   4.720   4.459
25101SOL    HW280151   8.060   4.793   4.427
25102SOL     OW80152   8.134   4.885   5.527
25102SOL    HW180153   8.194   4.964   5.541
25102SOL    HW280154   8.048   4.916   5.486
25103SOL     OW80155   7.783   5.159   4.785
25103SOL    HW180156   7.705   5.128   4.732
25103SOL    HW280157   7.841   5.217   4.728
25104SOL     OW80158   8.908   5.229   5.063
25104SOL    HW180159   8.932   5.323   5.089
25104SOL    HW280160   8.892   5.175   5.145
25105SOL     OW80161   9.051   4.171   4.461
25105SOL    HW180162   8.977   4.217   4.411
25105SOL    HW280163   9.102   4.239   4.514
25106SOL     OW80164   7.679   5.437   4.207
25106SOL    HW180165   7.713   5.514   4.261
25106SOL    HW280166   7.723   5.437   4.117
25107SOL     OW80167   8.575   5.065   5.414
25107SOL    HW180168   8.622   5.065   5.502
25107SOL    HW280169   8.527   4.978   5.403
25108SOL     OW80170   7.678   5.158   4.262
25108SOL    HW180171   7.652   5.254   4.262
25108SOL    HW280172   7.607   5.104   4.307
25109SOL     OW80173   7.688   4.815   4.610
25109SOL    HW180174   7.702   4.731   4.662
25109SOL    HW280175   7.633   4.879   4.665
25110SOL     OW80176   8.068   5.510   5.163
25110SOL    HW180177   7.976   5.493   5.198
25110SOL    HW280178   8.096   5.602   5.189
25111SOL     OW80179   9.042   3.838   5.204
25111SOL    HW180180   9.024   3.905   5.132
25111SOL    HW280181   9.039   3.884   5.293
25112SOL     OW80182   7.570   4.367   4.287
25112SOL    HW180183   7.525   4.279   4.304
25112SOL    HW280184   7.569   4.421   4.371
25113SOL     OW80185   9.290   5.491   4.083
25113SOL    HW180186   9.344   5.462   4.163
25113SOL    HW280187   9.320   5.581   4.054
25114SOL     OW80188   7.475   5.320   3.841
25114SOL    HW180189   7.456   5.224   3.862
25114SOL    HW280190   7.442   5.378   3.916
25115SOL     OW80191   9.137   4.646   4.336
25115SOL    HW180192   9.232   4.617   4.344
25115SOL    HW280193   9.129   4.711   4.261
25116SOL     OW80194   9.089   4.832   4.156
25116SOL    HW180195   9.175   4.834   4.104
25116SOL    HW280196   9.103   4.879   4.244
25117SOL     OW80197   7.561   4.461   5.321
25117SOL    HW180198   7.649   4.448   5.366
25117SOL    HW280199   7.548   4.558   5.299
25118SOL     OW80200   8.061   5.089   4.450
25118SOL    HW180201   8.012   5.002   4.459
25118SOL    HW280202   8.038   5.132   4.363
25119SOL     OW80203   8.741   4.952   5.147
25119SOL    HW180204   8.778   4.879   5.089
25119SOL    HW280205   8.793   4.957   5.232
25120SOL     OW80206   7.645   4.700   4.988
25120SOL    HW180207   7.734   4.655   4.974
25120SOL    HW280208   7.572   4.635   4.969
25121SOL     OW80209   8.973   4.723   3.914
25121SOL    HW180210   8.910   4.647   3.927
25121SOL    HW280211   9.021   4.741   4.000
25122SOL     OW80212   8.635   5.516   5.340
25122SOL    HW180213   8.659   5.576   5.264
25122SOL    HW280214   8.642   5.421   5.310
25123SOL     OW80215   8.914   5.141   4.677
25123SOL    HW180216   8.855   5.147   4.757
25123SOL    HW280217   8.899   5.053   4.631
25124SOL     OW80218   8.046   4.453   3.994
25124SOL    HW180219   8.070   4.522   3.926
25124SOL    HW280220   7.968   4.486   4.048
25125SOL     OW80221   8.729   4.069   4.668
25125SOL    HW180222   8.643   4.019   4.655
25125SOL    HW280223   8.791   4.015   4.724
25126SOL     OW80224   8.255   4.329   5.189
25126SOL    HW180225   8.208   4.326   5.278
25126SOL    HW280226   8.204   4.274   5.123
25127SOL     OW80227   8.842   4.193   5.398
25127SOL    HW180228   8.822   4.236   5.486
25127SOL    HW280229   8.920   4.131   5.407
25128SOL     OW80230   8.421   4.614   5.296
25128SOL    HW180231   8.467   4.530   5.267
25128SOL    HW280232   8.365   4.648   5.221
25129SOL     OW80233   8.439   4.134   4.966
25129SOL    HW180234   8.362   4.168   5.020
25129SOL    HW280235   8.405   4.083   4.887
25130SOL     OW80236   8.489   4.425   4.153
25130SOL    HW180237   8.515   4.421   4.249
25130SOL    HW280238   8.404   4.374   4.139
25131SOL     OW80239   7.524   4.535   4.513
25131SOL    HW180240   7.623   4.523   4.522
25131SOL    HW280241   7.500   4.630   4.534
25132SOL     OW80242   7.578   5.545   5.295
25132SOL    HW180243   7.568   5.530   5.394
25132SOL    HW280244   7.492   5.581   5.259
25133SOL     OW80245   9.167   4.309   5.555
25133SOL    HW180246   9.141   4.398   5.519
25133SOL    HW280247   9.165   4.241   5.482
25134SOL     OW80248   8.810   4.868   4.269
25134SOL    HW180249   8.893   4.839   4.221
25134SOL    HW280250   8.761   4.935   4.213
25135SOL     OW80251   7.998   3.920   4.609
25135SOL    HW180252   7.993   3.915   4.709
25135SOL    HW280253   8.000   4.016   4.580
25136SOL     OW80254   8.456   5.180   4.201
25136SOL    HW180255   8.410   5.252   4.149
25136SOL    HW280256   8.452   5.200   4.299
25137SOL     OW80257   7.799   5.525   4.577
25137SOL    HW180258   7.849   5.439   4.583
25137SOL    HW280259   7.864   5.602   4.574
25138SOL     OW80260   9.243   4.790   4.597
25138SOL    HW180261   9.181   4.775   4.521
25138SOL    HW280262   9.191   4.801   4.682
25139SOL     OW80263   8.675   5.274   5.230
25139SOL    HW180264   8.681   5.197   5.294
25139SOL    HW280265   8.623   5.248   5.150
25140SOL     OW80266   7.769   4.667   3.966
25140SOL    HW180267   7.851   4.706   3.924
25140SOL    HW280268   7.742   4.585   3.917
25141SOL     OW80269   8.906   4.459   4.452
25141SOL    HW180270   8.901   4.394   4.527
25141SOL    HW280271   8.986   4.518   4.465
25142SOL     OW80272   7.909   4.990   5.451
25142SOL    HW180273   7.859   4.991   5.365
25142SOL    HW280274   7.846   4.972   5.527
25143SOL     OW80275   7.650   4.009   5.222
25143SOL    HW180276   7.570   4.069   5.209
25143SOL    HW280277   7.640   3.960   5.308
25144SOL     OW80278   9.080   5.101   3.805
25144SOL    HW180279   9.048   5.195   3.795
25144SOL    HW280280   9.004   5.038   3.793
25145SOL     OW80281   7.912   5.467   4.047
25145SOL    HW180282   7.945   5.506   4.133
25145SOL    HW280283   7.988   5.460   3.982
25146SOL     OW80284   8.848   3.831   4.150
25146SOL    HW180285   8.824   3.794   4.060
25146SOL    HW280286   8.947   3.847   4.154
25147SOL     OW80287   7.697   5.509   4.965
25147SOL    HW180288   7.754   5.444   5.015
25147SOL    HW280289   7.681   5.476   4.872
25148SOL     OW80290   8.388   5.422   4.628
25148SOL    HW180291   8.468   5.365   4.649
25148SOL    HW280292   8.339   5.382   4.551
25149SOL     OW80293   7.830   4.424   4.204
25149SOL    HW180294   7.875   4.334   4.201
25149SOL    HW280295   7.736   4.413   4.237
25150SOL     OW80296   8.995   3.946   5.453
25150SOL    HW180297   8.990   3.983   5.545
25150SOL    HW280298   8.923   3.877   5.441
25151SOL     OW80299   8.062   3.846   3.841
25151SOL    HW180300   8.160   3.824   3.848
25151SOL    HW280301   8.031   3.829   3.748
25152SOL     OW80302   8.336   5.238   4.919
25152SOL    HW180303   8.313   5.213   4.825
25152SOL    HW280304   8.397   5.169   4.958
25153SOL     OW80305   8.799   4.314   5.157
25153SOL    HW180306   8.827   4.271   5.242
25153SOL    HW280307   8.824   4.410   5.158
25154SOL     OW80308   8.251   5.126   4.648
25154SOL    HW180309   8.341   5.140   4.606
25154SOL    HW280310   8.180   5.128   4.577
25155SOL     OW80311   8.370   4.227   4.623
25155SOL    HW180312   8.345   4.218   4.527
25155SOL    HW280313   8.418   4.145   4.654
25156SOL     OW80314   8.882   4.912   3.765
25156SOL    HW180315   8.914   4.836   3.822
25156SOL    HW280316   8.790   4.939   3.795
25157SOL     OW80317   7.745   3.759   3.895
25157SOL    HW180318   7.794   3.843   3.874
25157SOL    HW280319   7.807   3.694   3.940
25158SOL     OW80320   8.383   3.960   4.204
25158SOL    HW180321   8.335   4.001   4.126
25158SOL    HW280322   8.482   3.958   4.185
25159SOL     OW80323   8.524   4.407   5.188
25159SOL    HW180324   8.444   4.346   5.191
25159SOL    HW280325   8.605   4.354   5.164
25160SOL     OW80326   8.675   5.294   4.517
25160SOL    HW180327   8.696   5.368   4.452
25160SOL    HW280328   8.743   5.294   4.590
25161SOL     OW80329   7.907   4.876   4.465
25161SOL    HW180330   7.836   4.849   4.530
25161SOL    HW280331   7.881   4.848   4.372
25162SOL     OW80332   8.719   5.521   4.315
25162SOL    HW180333   8.763   5.585   4.251
25162SOL    HW280334   8.669   5.573   4.385
25163SOL     OW80335   8.480   4.273   3.740
25163SOL    HW180336   8.439   4.355   3.701
25163SOL    HW280337   8.544   4.299   3.813
25164SOL     OW80338   7.526   4.280   5.110
25164SOL    HW180339   7.618   4.279   5.069
25164SOL    HW280340   7.520   4.354   5.177
25165SOL     OW80341   8.009   3.946   4.871
25165SOL    HW180342   8.047   3.862   4.908
25165SOL    HW280343   7.921   3.965   4.915
25166SOL     OW80344   8.314   4.178   4.366
25166SOL    HW180345   8.282   4.250   4.304
25166SOL    HW280346   8.338   4.097   4.313
25167SOL     OW80347   8.465   3.763   4.477
25167SOL    HW180348   8.393   3.768   4.408
25167SOL    HW280349   8.441   3.694   4.546
25168SOL     OW80350   8.877   4.897   4.591
25168SOL    HW180351   8.822   4.813   4.584
25168SOL    HW280352   8.903   4.926   4.499
25169SOL     OW80353   8.914   4.314   4.716
25169SOL    HW180354   8.884   4.219   4.723
25169SOL    HW280355   8.987   4.330   4.782
25170SOL     OW80356   9.305   4.557   4.101
25170SOL    HW180357   9.347   4.493   4.165
25170SOL    HW280358   9.267   4.506   4.023
25171SOL     OW80359   8.838   4.299   3.802
25171SOL    HW180360   8.784   4.278   3.883
25171SOL    HW280361   8.929   4.258   3.811
25172SOL     OW80362   9.202   4.947   5.312
25172SOL    HW180363   9.293   4.908   5.299
25172SOL    HW280364   9.210   5.043   5.336
25173SOL     OW80365   8.512   5.071   5.064
25173SOL    HW180366   8.432   5.048   5.119
25173SOL    HW280367   8.595   5.045   5.113
25174SOL     OW80368   9.040   5.353   5.349
25174SOL    HW180369   9.067   5.387   5.259
25174SOL    HW280370   9.119   5.315   5.395
25175SOL     OW80371   8.559   4.919   4.824
25175SOL    HW180372   8.519   4.963   4.905
25175SOL    HW280373   8.518   4.956   4.741
25176SOL     OW80374   9.086   4.823   4.803
25176SOL    HW180375   9.091   4.904   4.862
25176SOL    HW280376   9.000   4.825   4.752
25177SOL     OW80377   8.363   3.813   5.126
25177SOL    HW180378   8.388   3.793   5.031
25177SOL    HW280379   8.435   3.869   5.168
25178SOL     OW80380   8.428   4.840   5.443
25178SOL    HW180381   8.329   4.846   5.453
25178SOL    HW280382   8.451   4.760   5.387
25179SOL     OW80383   8.153   4.774   4.092
25179SOL    HW180384   8.139   4.781   4.191
25179SOL    HW280385   8.237   4.723   4.074
25180SOL     OW80386   7.858   4.537   4.975
25180SOL    HW180387   7.944   4.549   5.025
25180SOL    HW280388   7.816   4.450   5.002
25181SOL     OW80389   7.512   5.288   5.055
25181SOL    HW180390   7.466   5.370   5.021
25181SOL    HW280391   7.610   5.307   5.064
25182SOL     OW80392   7.815   4.824   4.225
25182SOL    HW180393   7.808   4.907   4.169
25182SOL    HW280394   7.819   4.744   4.165
25183SOL     OW80395   8.014   4.261   4.589
25183SOL    HW180396   8.026   4.327   4.515
25183SOL    HW280397   8.060   4.295   4.672
25184SOL     OW80398   8.700   5.072   4.112
25184SOL    HW180399   8.750   5.149   4.152
25184SOL    HW280400   8.605   5.074   4.144
25185SOL     OW80401   8.720   5.169   4.866
25185SOL    HW180402   8.767   5.182   4.953
25185SOL    HW280403   8.654   5.095   4.875
25186SOL     OW80404   9.030   4.363   4.196
25186SOL    HW180405   8.999   4.424   4.269
25186SOL    HW280406   9.080   4.415   4.127
25187SOL     OW80407   7.802   5.234   5.053
25187SOL    HW180408   7.781   5.190   4.966
25187SOL    HW280409   7.899   5.260   5.056
25188SOL     OW80410   7.850   4.475   5.322
25188SOL    HW180411   7.918   4.530   5.275
25188SOL    HW280412   7.890   4.387   5.349
25189SOL     OW80413   9.035   4.503   5.394
25189SOL    HW180414   8.943   4.541   5.389
25189SOL    HW280415   9.095   4.550   5.329
25190SOL     OW80416   8.461   3.829   5.494
25190SOL    HW180417   8.467   3.914   5.442
25190SOL    HW280418   8.493   3.753   5.437
25191SOL     OW80419   8.021   4.594   4.753
25191SOL    HW180420   8.065   4.683   4.744
25191SOL    HW280421   7.958   4.594   4.830
25192SOL     OW80422   8.808   4.586   4.769
25192SOL    HW180423   8.733   4.586   4.703
25192SOL    HW280424   8.845   4.494   4.778
25193SOL     OW80425   8.657   4.249   3.999
25193SOL    HW180426   8.670   4.165   4.053
25193SOL    HW280427   8.628   4.323   4.059
25194SOL     OW80428   7.755   3.937   4.955
25194SOL    HW180429   7.732   3.974   5.045
25194SOL    HW280430   7.725   3.842   4.949
25195SOL     OW80431   7.485   5.034   5.006
25195SOL    HW180432   7.538   4.985   5.074
25195SOL    HW280433   7.507   5.132   5.011
25196SOL     OW80434   8.180   4.358   4.788
25196SOL    HW180435   8.239   4.332   4.712
25196SOL    HW280436   8.152   4.454   4.777
25197SOL     OW80437   9.176   4.659   5.578
25197SOL    HW180438   9.130   4.652   5.489
25197SOL    HW280439   9.114   4.703   5.644
25198SOL     OW80440   7.755   3.787   4.342
25198SOL    HW180441   7.744   3.881   4.375
25198SOL    HW280442   7.750   3.724   4.419
25199SOL     OW80443   9.070   4.091   4.098
25199SOL    HW180444   9.072   4.015   4.162
25199SOL    HW280445   9.022   4.168   4.138
25200SOL     OW80446   8.471   4.490   4.690
25200SOL    HW180447   8.486   4.511   4.786
25200SOL    HW280448   8.441   4.395   4.681
25201SOL     OW80449   8.428   5.297   5.424
25201SOL    HW180450   8.408   5.341   5.336
25201SOL    HW280451   8.467   5.206   5.408
25202SOL     OW80452   9.307   5.242   5.329
25202SOL    HW180453   9.321   5.269   5.234
25202SOL    HW280454   9.390   5.264   5.382
25203SOL     OW80455   7.798   4.622   5.528
25203SOL    HW180456   7.874   4.666   5.576
25203SOL    HW280457   7.833   4.575   5.446
25204SOL     OW80458   8.988   3.998   3.849
25204SOL    HW180459   8.927   3.923   3.872
25204SOL    HW280460   9.010   4.050   3.932
25205SOL     OW80461   8.751   4.562   3.766
25205SOL    HW180462   8.785   4.469   3.781
25205SOL    HW280463   8.769   4.589   3.671
25206SOL     OW80464   8.516   5.057   4.573
25206SOL    HW180465   8.523   4.973   4.518
25206SOL    HW280466   8.578   5.126   4.537
25207SOL     OW80467   7.767   4.534   4.673
25207SOL    HW180468   7.860   4.570   4.678
25207SOL    HW280469   7.761   4.449   4.725
25208SOL     OW80470   7.787   4.233   4.730
25208SOL    HW180471   7.735   4.150   4.713
25208SOL    HW280472   7.864   4.238   4.666
25209SOL     OW80473   8.586   4.104   5.402
25209SOL    HW180474   8.541   4.167   5.466
25209SOL    HW280475   8.679   4.135   5.385
25210SOL     OW80476   8.608   3.931   5.201
25210SOL    HW180477   8.608   3.995   5.278
25210SOL    HW280478   8.636   3.979   5.118
25211SOL     OW80479   7.456   5.050   3.924
25211SOL    HW180480   7.363   5.071   3.893
25211SOL    HW280481   7.466   4.951   3.937
25212SOL     OW80482   7.536   5.525   4.651
25212SOL    HW180483   7.494   5.439   4.624
25212SOL    HW280484   7.630   5.528   4.617
25213SOL     OW80485   7.952   5.292   4.634
25213SOL    HW180486   8.018   5.366   4.643
25213SOL    HW280487   7.996   5.213   4.592
25214SOL     OW80488   8.450   4.520   4.962
25214SOL    HW180489   8.491   4.488   5.048
25214SOL    HW280490   8.354   4.493   4.959
25215SOL     OW80491   7.488   4.268   4.838
25215SOL    HW180492   7.573   4.235   4.797
25215SOL    HW280493   7.501   4.283   4.936
25216SOL     OW80494   7.637   4.244   5.446
25216SOL    HW180495   7.696   4.204   5.376
25216SOL    HW280496   7.579   4.315   5.405
25217SOL     OW80497   8.817   4.674   5.384
25217SOL    HW180498   8.856   4.763   5.404
25217SOL    HW280499   8.827   4.654   5.287
25218SOL     OW80500   9.105   4.328   4.930
25218SOL    HW180501   9.067   4.259   4.992
25218SOL    HW280502   9.187   4.292   4.886
25219SOL     OW80503   7.700   5.288   5.468
25219SOL    HW180504   7.670   5.345   5.544
25219SOL    HW280505   7.693   5.191   5.494
25220SOL     OW80506   8.119   4.188   4.993
25220SOL    HW180507   8.085   4.099   4.963
25220SOL    HW280508   8.145   4.242   4.913
25221SOL     OW80509   7.921   4.224   3.915
25221SOL    HW180510   7.982   4.304   3.919
25221SOL    HW280511   7.826   4.255   3.922
25222SOL     OW80512   7.607   4.861   5.190
25222SOL    HW180513   7.629   4.800   5.266
25222SOL    HW280514   7.617   4.812   5.104
25223SOL     OW80515   9.207   5.471   4.878
25223SOL    HW180516   9.268   5.501   4.805
25223SOL    HW280517   9.169   5.382   4.856
25224SOL     OW80518   8.700   5.455   4.852
25224SOL    HW180519   8.784   5.460   4.798
25224SOL    HW280520   8.677   5.359   4.870
25225SOL     OW80521   7.531   4.982   4.746
25225SOL    HW180522   7.526   4.981   4.846
25225SOL    HW280523   7.448   4.941   4.708
25226SOL     OW80524   8.136   5.386   5.440
25226SOL    HW180525   8.080   5.467   5.449
25226SOL    HW280526   8.188   5.390   5.354
25227SOL     OW80527   9.174   3.859   4.247
25227SOL    HW180528   9.247   3.842   4.180
25227SOL    HW280529   9.143   3.772   4.285
25228SOL     OW80530   8.836   5.297   4.201
25228SOL    HW180531   8.903   5.309   4.127
25228SOL    HW280532   8.796   5.386   4.224
25229SOL     OW80533   7.578   5.518   5.575
25229SOL    HW180534   7.537   5.444   5.628
25229SOL    HW280535   7.642   5.569   5.633
25230SOL     OW80536   8.728   4.651   4.396
25230SOL    HW180537   8.788   4.570   4.398
25230SOL    HW280538   8.768   4.720   4.336
25231SOL     OW80539   8.278   4.997   5.146
25231SOL    HW180540   8.273   5.030   5.241
25231SOL    HW280541   8.192   5.016   5.100
25232SOL     OW80542   8.120   5.340   3.878
25232SOL    HW180543   8.129   5.350   3.779
25232SOL    HW280544   8.080   5.251   3.899
25233SOL     OW80545   9.098   5.444   5.118
25233SOL    HW180546   9.151   5.454   5.034
25233SOL    HW280547   9.071   5.534   5.152
25234SOL     OW80548   9.289   3.899   4.687
25234SOL    HW180549   9.328   3.814   4.651
25234SOL    HW280550   9.191   3.901   4.668
25235SOL     OW80551   7.711   4.050   4.444
25235SOL    HW180552   7.632   4.101   4.410
25235SOL    HW280553   7.702   4.035   4.542
25236SOL     OW80554   8.642   5.336   3.755
25236SOL    HW180555   8.648   5.243   3.792
25236SOL    HW280556   8.583   5.336   3.675
25237SOL     OW80557   8.270   4.726   5.096
25237SOL    HW180558   8.310   4.725   5.004
25237SOL    HW280559   8.280   4.818   5.136
25238SOL     OW80560   8.364   4.634   4.015
25238SOL    HW180561   8.427   4.672   3.947
25238SOL    HW280562   8.404   4.551   4.054
25239SOL     OW80563   7.820   5.012   5.214
25239SOL    HW180564   7.807   5.105   5.180
25239SOL    HW280565   7.736   4.960   5.201
25240SOL     OW80566   9.062   5.016   5.013
25240SOL    HW180567   9.122   5.019   5.093
25240SOL    HW280568   8.987   5.080   5.026
25241SOL     OW80569   8.487   4.822   4.420
25241SOL    HW180570   8.417   4.775   4.474
25241SOL    HW280571   8.546   4.754   4.377
25242SOL     OW80572   8.462   3.960   4.695
25242SOL    HW180573   8.454   3.924   4.602
25242SOL    HW280574   8.460   3.884   4.760
25243SOL     OW80575   8.038   5.211   4.215
25243SOL    HW180576   8.080   5.153   4.145
25243SOL    HW280577   7.994   5.290   4.171
25244SOL     OW80578   9.157   4.109   5.105
25244SOL    HW180579   9.230   4.178   5.109
25244SOL    HW280580   9.185   4.034   5.046
25245SOL     OW80581   7.703   5.072   4.014
25245SOL    HW180582   7.607   5.073   3.987
25245SOL    HW280583   7.715   5.125   4.098
25246SOL     OW80584   7.553   4.737   5.450
25246SOL    HW180585   7.476   4.704   5.504
25246SOL    HW280586   7.638   4.707   5.492
25247SOL     OW80587   8.120   3.927   5.213
25247SOL    HW180588   8.210   3.911   5.173
25247SOL    HW280589   8.128   3.932   5.312
25248SOL     OW80590   7.523   4.069   3.757
25248SOL    HW180591   7.431   4.041   3.728
25248SOL    HW280592   7.554   4.146   3.701
25249SOL     OW80593   8.888   4.580   5.122
25249SOL    HW180594   8.831   4.632   5.059
25249SOL    HW280595   8.984   4.592   5.098
25250SOL     OW80596   7.520   3.890   4.042
25250SOL    HW180597   7.503   3.973   3.988
25250SOL    HW280598   7.610   3.853   4.020
25251SOL     OW80599   8.631   5.059   3.843
25251SOL    HW180600   8.532   5.048   3.845
25251SOL    HW280601   8.665   5.074   3.936
25252SOL     OW80602   8.061   4.566   5.155
25252SOL    HW180603   8.117   4.647   5.138
25252SOL    HW280604   8.120   4.486   5.158
25253SOL     OW80605   8.941   5.491   4.683
25253SOL    HW180606   8.974   5.555   4.614
25253SOL    HW280607   9.007   5.485   4.758
25254SOL     OW80608   8.898   4.944   5.357
25254SOL    HW180609   8.889   4.934   5.456
25254SOL    HW280610   8.994   4.937   5.331
25255SOL     OW80611   7.838   5.465   5.284
25255SOL    HW180612   7.747   5.506   5.282
25255SOL    HW280613   7.831   5.371   5.316
25256SOL     OW80614   9.122   4.607   4.978
25256SOL    HW180615   9.095   4.518   4.941
25256SOL    HW280616   9.123   4.675   4.905
25257SOL     OW80617   8.673   4.049   4.173
25257SOL    HW180618   8.738   3.975   4.162
25257SOL    HW280619   8.693   4.099   4.257
25258SOL     OW80620   8.042   4.469   4.376
25258SOL    HW180621   8.092   4.554   4.357
25258SOL    HW280622   7.954   4.471   4.328
25259SOL     OW80623   9.225   4.066   5.366
25259SOL    HW180624   9.208   4.097   5.272
25259SOL    HW280625   9.141   4.029   5.404
25260SOL     OW80626   9.178   4.658   5.241
25260SOL    HW180627   9.216   4.749   5.256
25260SOL    HW280628   9.170   4.641   5.142
25261SOL     OW80629   8.109   5.514   4.677
25261SOL    HW180630   8.063   5.602   4.664
25261SOL    HW280631   8.208   5.526   4.670
25262SOL     OW80632   8.307   4.680   4.585
25262SOL    HW180633   8.361   4.611   4.633
25262SOL    HW280634   8.275   4.749   4.651
25263SOL     OW80635   8.531   4.708   3.811
25263SOL    HW180636   8.508   4.761   3.729
25263SOL    HW280637   8.612   4.652   3.792
25264SOL     OW80638   9.309   5.293   4.575
25264SOL    HW180639   9.238   5.281   4.505
25264SOL    HW280640   9.310   5.214   4.635
25265SOL     OW80641   7.669   5.038   5.568
25265SOL    HW180642   7.604   4.965   5.547
25265SOL    HW280643   7.673   5.052   5.666
25266SOL     OW80644   7.527   4.964   4.377
25266SOL    HW180645   7.526   4.917   4.465
25266SOL    HW280646   7.609   4.936   4.326
25267SOL     OW80647   8.120   5.115   5.348
25267SOL    HW180648   8.042   5.065   5.386
25267SOL    HW280649   8.117   5.210   5.379
25268SOL     OW80650   9.272   3.916   4.951
25268SOL    HW180651   9.268   3.826   4.995
25268SOL    HW280652   9.275   3.905   4.852
25269SOL     OW80653   9.153   5.211   4.828
25269SOL    HW180654   9.060   5.186   4.801
25269SOL    HW280655   9.179   5.161   4.910
25270SOL     OW80656   7.765   4.271   5.004
25270SOL    HW180657   7.803   4.212   5.076
25270SOL    HW280658   7.805   4.245   4.916
25271SOL     OW80659   8.260   5.310   4.411
25271SOL    HW180660   8.292   5.320   4.317
25271SOL    HW280661   8.181   5.248   4.413
25272SOL     OW80662   8.872   3.938   4.836
25272SOL    HW180663   8.924   3.873   4.891
25272SOL    HW280664   8.823   4.001   4.897
25273SOL     OW80665   8.449   3.758   4.878
25273SOL    HW180666   8.386   3.686   4.847
25273SOL    HW280667   8.542   3.722   4.878
25274SOL     OW80668   8.218   5.054   4.025
25274SOL    HW180669   8.172   4.967   4.042
25274SOL    HW280670   8.309   5.051   4.066
25275SOL     OW80671   8.066   5.291   5.008
25275SOL    HW180672   8.061   5.373   5.065
25275SOL    HW280673   8.155   5.288   4.963
25276SOL     OW80674   8.800   3.776   3.892
25276SOL    HW180675   8.835   3.735   3.808
25276SOL    HW280676   8.710   3.738   3.912
25277SOL     OW80677   8.748   4.177   4.415
25277SOL    HW180678   8.689   4.257   4.419
25277SOL    HW280679   8.763   4.142   4.508
25278SOL     OW80680   9.041   3.945   4.606
25278SOL    HW180681   8.957   3.944   4.660
25278SOL    HW280682   9.043   4.028   4.550
25279SOL     OW80683   7.487   4.801   4.024
25279SOL    HW180684   7.586   4.790   4.015
25279SOL    HW280685   7.447   4.715   4.056
25280SOL     OW80686   8.323   5.370   4.061
25280SOL    HW180687   8.246   5.335   4.007
25280SOL    HW280688   8.291   5.441   4.123
25281SOL     OW80689   7.678   4.352   5.699
25281SOL    HW180690   7.585   4.350   5.736
25281SOL    HW280691   7.679   4.313   5.607
25282SOL     OW80692   7.673   3.999   6.582
25282SOL    HW180693   7.708   3.982   6.674
25282SOL    HW280694   7.585   3.954   6.570
25283SOL     OW80695   7.467   4.092   6.233
25283SOL    HW180696   7.385   4.135   6.272
25283SOL    HW280697   7.439   4.019   6.170
25284SOL     OW80698   8.017   4.999   6.751
25284SOL    HW180699   7.924   4.992   6.714
25284SOL    HW280700   8.028   5.088   6.795
25285SOL     OW80701   9.003   5.235   6.289
25285SOL    HW180702   8.946   5.219   6.370
25285SOL    HW280703   8.944   5.245   6.209
25286SOL     OW80704   8.583   4.427   6.303
25286SOL    HW180705   8.640   4.505   6.278
25286SOL    HW280706   8.523   4.453   6.379
25287SOL     OW80707   9.203   4.331   5.817
25287SOL    HW180708   9.191   4.318   5.718
25287SOL    HW280709   9.173   4.250   5.866
25288SOL     OW80710   8.298   4.522   7.409
25288SOL    HW180711   8.294   4.598   7.474
25288SOL    HW280712   8.320   4.558   7.318
25289SOL     OW80713   8.134   4.885   7.389
25289SOL    HW180714   8.194   4.964   7.403
25289SOL    HW280715   8.048   4.916   7.348
25290SOL     OW80716   7.783   5.159   6.647
25290SOL    HW180717   7.705   5.128   6.594
25290SOL    HW280718   7.841   5.217   6.590
25291SOL     OW80719   8.908   5.229   6.925
25291SOL    HW180720   8.932   5.323   6.951
25291SOL    HW280721   8.892   5.175   7.007
25292SOL     OW80722   7.886   4.116   7.085
25292SOL    HW180723   7.968   4.060   7.094
25292SOL    HW280724   7.805   4.058   7.089
25293SOL     OW80725   9.051   4.171   6.323
25293SOL    HW180726   8.977   4.217   6.273
25293SOL    HW280727   9.102   4.239   6.376
25294SOL     OW80728   7.679   5.437   6.069
25294SOL    HW180729   7.713   5.514   6.123
25294SOL    HW280730   7.723   5.437   5.979
25295SOL     OW80731   8.575   5.065   7.276
25295SOL    HW180732   8.622   5.065   7.364
25295SOL    HW280733   8.527   4.978   7.265
25296SOL     OW80734   7.678   5.158   6.124
25296SOL    HW180735   7.652   5.254   6.124
25296SOL    HW280736   7.607   5.104   6.169
25297SOL     OW80737   7.688   4.815   6.472
25297SOL    HW180738   7.702   4.731   6.524
25297SOL    HW280739   7.633   4.879   6.527
25298SOL     OW80740   8.068   5.510   7.025
25298SOL    HW180741   7.976   5.493   7.060
25298SOL    HW280742   8.096   5.602   7.051
25299SOL     OW80743   8.054   4.688   5.709
25299SOL    HW180744   8.061   4.772   5.655
25299SOL    HW280745   8.100   4.701   5.797
25300SOL     OW80746   9.042   3.838   7.066
25300SOL    HW180747   9.024   3.905   6.994
25300SOL    HW280748   9.039   3.884   7.155
25301SOL     OW80749   7.570   4.367   6.149
25301SOL    HW180750   7.525   4.279   6.166
25301SOL    HW280751   7.569   4.421   6.233
25302SOL     OW80752   9.290   5.491   5.945
25302SOL    HW180753   9.344   5.462   6.025
25302SOL    HW280754   9.320   5.581   5.916
25303SOL     OW80755   7.475   5.320   5.703
25303SOL    HW180756   7.456   5.224   5.724
25303SOL    HW280757   7.442   5.378   5.778
25304SOL     OW80758   9.137   4.646   6.198
25304SOL    HW180759   9.232   4.617   6.206
25304SOL    HW280760   9.129   4.711   6.123
25305SOL     OW80761   9.089   4.832   6.018
25305SOL    HW180762   9.175   4.834   5.966
25305SOL    HW280763   9.103   4.879   6.106
25306SOL     OW80764   7.561   4.461   7.183
25306SOL    HW180765   7.649   4.448   7.228
25306SOL    HW280766   7.548   4.558   7.161
25307SOL     OW80767   8.061   5.089   6.312
25307SOL    HW180768   8.012   5.002   6.321
25307SOL    HW280769   8.038   5.132   6.225
25308SOL     OW80770   8.741   4.952   7.009
25308SOL    HW180771   8.778   4.879   6.951
25308SOL    HW280772   8.793   4.957   7.094
25309SOL     OW80773   7.645   4.700   6.850
25309SOL    HW180774   7.734   4.655   6.836
25309SOL    HW280775   7.572   4.635   6.831
25310SOL     OW80776   8.973   4.723   5.776
25310SOL    HW180777   8.910   4.647   5.789
25310SOL    HW280778   9.021   4.741   5.862
25311SOL     OW80779   8.635   5.516   7.202
25311SOL    HW180780   8.659   5.576   7.126
25311SOL    HW280781   8.642   5.421   7.172
25312SOL     OW80782   7.765   3.975   7.387
25312SOL    HW180783   7.836   4.046   7.393
25312SOL    HW280784   7.677   4.014   7.415
25313SOL     OW80785   8.914   5.141   6.539
25313SOL    HW180786   8.855   5.147   6.619
25313SOL    HW280787   8.899   5.053   6.493
25314SOL     OW80788   9.115   5.438   6.158
25314SOL    HW180789   9.074   5.415   6.070
25314SOL    HW280790   9.097   5.364   6.223
25315SOL     OW80791   8.046   4.453   5.856
25315SOL    HW180792   8.070   4.522   5.788
25315SOL    HW280793   7.968   4.486   5.910
25316SOL     OW80794   8.729   4.069   6.530
25316SOL    HW180795   8.643   4.019   6.517
25316SOL    HW280796   8.791   4.015   6.586
25317SOL     OW80797   9.024   5.386   5.893
25317SOL    HW180798   9.113   5.432   5.896
25317SOL    HW280799   9.003   5.362   5.798
25318SOL     OW80800   8.255   4.329   7.051
25318SOL    HW180801   8.208   4.326   7.140
25318SOL    HW280802   8.204   4.274   6.985
25319SOL     OW80803   8.421   4.614   7.158
25319SOL    HW180804   8.467   4.530   7.129
25319SOL    HW280805   8.365   4.648   7.083
25320SOL     OW80806   8.439   4.134   6.828
25320SOL    HW180807   8.362   4.168   6.882
25320SOL    HW280808   8.405   4.083   6.749
25321SOL     OW80809   8.489   4.425   6.015
25321SOL    HW180810   8.515   4.421   6.111
25321SOL    HW280811   8.404   4.374   6.001
25322SOL     OW80812   7.524   4.535   6.375
25322SOL    HW180813   7.623   4.523   6.384
25322SOL    HW280814   7.500   4.630   6.396
25323SOL     OW80815   7.578   5.545   7.157
25323SOL    HW180816   7.568   5.530   7.256
25323SOL    HW280817   7.492   5.581   7.121
25324SOL     OW80818   8.810   4.868   6.131
25324SOL    HW180819   8.893   4.839   6.083
25324SOL    HW280820   8.761   4.935   6.075
25325SOL     OW80821   7.998   3.920   6.471
25325SOL    HW180822   7.993   3.915   6.571
25325SOL    HW280823   8.000   4.016   6.442
25326SOL     OW80824   8.456   5.180   6.063
25326SOL    HW180825   8.410   5.252   6.011
25326SOL    HW280826   8.452   5.200   6.161
25327SOL     OW80827   7.799   5.525   6.439
25327SOL    HW180828   7.849   5.439   6.445
25327SOL    HW280829   7.864   5.602   6.436
25328SOL     OW80830   9.243   4.790   6.459
25328SOL    HW180831   9.181   4.775   6.383
25328SOL    HW280832   9.191   4.801   6.544
25329SOL     OW80833   8.675   5.274   7.092
25329SOL    HW180834   8.681   5.197   7.156
25329SOL    HW280835   8.623   5.248   7.012
25330SOL     OW80836   7.769   4.667   5.828
25330SOL    HW180837   7.851   4.706   5.786
25330SOL    HW280838   7.742   4.585   5.779
25331SOL     OW80839   8.906   4.459   6.314
25331SOL    HW180840   8.901   4.394   6.389
25331SOL    HW280841   8.986   4.518   6.327
25332SOL     OW80842   7.909   4.990   7.313
25332SOL    HW180843   7.859   4.991   7.227
25332SOL    HW280844   7.846   4.972   7.389
25333SOL     OW80845   8.559   5.500   5.823
25333SOL    HW180846   8.499   5.438   5.873
25333SOL    HW280847   8.590   5.456   5.738
25334SOL     OW80848   7.650   4.009   7.084
25334SOL    HW180849   7.570   4.069   7.071
25334SOL    HW280850   7.640   3.960   7.170
25335SOL     OW80851   9.080   5.101   5.667
25335SOL    HW180852   9.048   5.195   5.657
25335SOL    HW280853   9.004   5.038   5.655
25336SOL     OW80854   7.912   5.467   5.909
25336SOL    HW180855   7.945   5.506   5.995
25336SOL    HW280856   7.988   5.460   5.844
25337SOL     OW80857   8.848   3.831   6.012
25337SOL    HW180858   8.824   3.794   5.922
25337SOL    HW280859   8.947   3.847   6.016
25338SOL     OW80860   7.697   5.509   6.827
25338SOL    HW180861   7.754   5.444   6.877
25338SOL    HW280862   7.681   5.476   6.734
25339SOL     OW80863   8.388   5.422   6.490
25339SOL    HW180864   8.468   5.365   6.511
25339SOL    HW280865   8.339   5.382   6.413
25340SOL     OW80866   7.830   4.424   6.066
25340SOL    HW180867   7.875   4.334   6.063
25340SOL    HW280868   7.736   4.413   6.099
25341SOL     OW80869   8.995   3.946   7.315
25341SOL    HW180870   8.990   3.983   7.407
25341SOL    HW280871   8.923   3.877   7.303
25342SOL     OW80872   8.062   3.846   5.703
25342SOL    HW180873   8.160   3.824   5.710
25342SOL    HW280874   8.031   3.829   5.610
25343SOL     OW80875   8.229   3.988   7.335
25343SOL    HW180876   8.296   3.927   7.378
25343SOL    HW280877   8.156   4.007   7.400
25344SOL     OW80878   8.336   5.238   6.781
25344SOL    HW180879   8.313   5.213   6.687
25344SOL    HW280880   8.397   5.169   6.820
25345SOL     OW80881   8.251   5.126   6.510
25345SOL    HW180882   8.341   5.140   6.468
25345SOL    HW280883   8.180   5.128   6.439
25346SOL     OW80884   8.370   4.227   6.485
25346SOL    HW180885   8.345   4.218   6.389
25346SOL    HW280886   8.418   4.145   6.516
25347SOL     OW80887   7.987   3.788   6.098
25347SOL    HW180888   7.906   3.789   6.156
25347SOL    HW280889   7.990   3.871   6.043
25348SOL     OW80890   8.882   4.912   5.627
25348SOL    HW180891   8.914   4.836   5.684
25348SOL    HW280892   8.790   4.939   5.657
25349SOL     OW80893   7.745   3.759   5.757
25349SOL    HW180894   7.794   3.843   5.736
25349SOL    HW280895   7.807   3.694   5.802
25350SOL     OW80896   8.524   4.407   7.050
25350SOL    HW180897   8.444   4.346   7.053
25350SOL    HW280898   8.605   4.354   7.026
25351SOL     OW80899   8.675   5.294   6.379
25351SOL    HW180900   8.696   5.368   6.314
25351SOL    HW280901   8.743   5.294   6.452
25352SOL     OW80902   7.907   4.876   6.327
25352SOL    HW180903   7.836   4.849   6.392
25352SOL    HW280904   7.881   4.848   6.234
25353SOL     OW80905   8.719   5.521   6.177
25353SOL    HW180906   8.763   5.585   6.113
25353SOL    HW280907   8.669   5.573   6.247
25354SOL     OW80908   8.480   4.273   5.602
25354SOL    HW180909   8.439   4.355   5.563
25354SOL    HW280910   8.544   4.299   5.675
25355SOL     OW80911   7.526   4.280   6.972
25355SOL    HW180912   7.618   4.279   6.931
25355SOL    HW280913   7.520   4.354   7.039
25356SOL     OW80914   8.009   3.946   6.733
25356SOL    HW180915   8.047   3.862   6.770
25356SOL    HW280916   7.921   3.965   6.777
25357SOL     OW80917   8.877   4.897   6.453
25357SOL    HW180918   8.822   4.813   6.446
25357SOL    HW280919   8.903   4.926   6.361
25358SOL     OW80920   8.914   4.314   6.578
25358SOL    HW180921   8.884   4.219   6.585
25358SOL    HW280922   8.987   4.330   6.644
25359SOL     OW80923   9.305   4.557   5.963
25359SOL    HW180924   9.347   4.493   6.027
25359SOL    HW280925   9.267   4.506   5.885
25360SOL     OW80926   7.936   5.109   5.760
25360SOL    HW180927   7.849   5.094   5.807
25360SOL    HW280928   7.919   5.135   5.665
25361SOL     OW80929   9.112   5.004   6.243
25361SOL    HW180930   9.211   5.012   6.257
25361SOL    HW280931   9.067   5.088   6.274
25362SOL     OW80932   8.838   4.299   5.664
25362SOL    HW180933   8.784   4.278   5.745
25362SOL    HW280934   8.929   4.258   5.673
25363SOL     OW80935   9.202   4.947   7.174
25363SOL    HW180936   9.293   4.908   7.161
25363SOL    HW280937   9.210   5.043   7.198
25364SOL     OW80938   8.512   5.071   6.926
25364SOL    HW180939   8.432   5.048   6.981
25364SOL    HW280940   8.595   5.045   6.975
25365SOL     OW80941   9.040   5.353   7.211
25365SOL    HW180942   9.067   5.387   7.121
25365SOL    HW280943   9.119   5.315   7.257
25366SOL     OW80944   8.559   4.919   6.686
25366SOL    HW180945   8.519   4.963   6.767
25366SOL    HW280946   8.518   4.956   6.603
25367SOL     OW80947   9.086   4.823   6.665
25367SOL    HW180948   9.091   4.904   6.724
25367SOL    HW280949   9.000   4.825   6.614
25368SOL     OW80950   8.363   3.813   6.988
25368SOL    HW180951   8.388   3.793   6.893
25368SOL    HW280952   8.435   3.869   7.030
25369SOL     OW80953   8.428   4.840   7.305
25369SOL    HW180954   8.329   4.846   7.315
25369SOL    HW280955   8.451   4.760   7.249
25370SOL     OW80956   8.153   4.774   5.954
25370SOL    HW180957   8.139   4.781   6.053
25370SOL    HW280958   8.237   4.723   5.936
25371SOL     OW80959   7.858   4.537   6.837
25371SOL    HW180960   7.944   4.549   6.887
25371SOL    HW280961   7.816   4.450   6.864
25372SOL     OW80962   8.722   4.110   6.848
25372SOL    HW180963   8.743   4.184   6.912
25372SOL    HW280964   8.633   4.127   6.805
25373SOL     OW80965   7.512   5.288   6.917
25373SOL    HW180966   7.466   5.370   6.883
25373SOL    HW280967   7.610   5.307   6.926
25374SOL     OW80968   7.815   4.824   6.087
25374SOL    HW180969   7.808   4.907   6.031
25374SOL    HW280970   7.819   4.744   6.027
25375SOL     OW80971   8.014   4.261   6.451
25375SOL    HW180972   8.026   4.327   6.377
25375SOL    HW280973   8.060   4.295   6.534
25376SOL     OW80974   8.700   5.072   5.974
25376SOL    HW180975   8.750   5.149   6.014
25376SOL    HW280976   8.605   5.074   6.006
25377SOL     OW80977   8.720   5.169   6.728
25377SOL    HW180978   8.767   5.182   6.815
25377SOL    HW280979   8.654   5.095   6.737
25378SOL     OW80980   9.030   4.363   6.058
25378SOL    HW180981   8.999   4.424   6.131
25378SOL    HW280982   9.080   4.415   5.989
25379SOL     OW80983   7.802   5.234   6.915
25379SOL    HW180984   7.781   5.190   6.828
25379SOL    HW280985   7.899   5.260   6.918
25380SOL     OW80986   7.850   4.475   7.184
25380SOL    HW180987   7.918   4.530   7.137
25380SOL    HW280988   7.890   4.387   7.211
25381SOL     OW80989   8.461   3.829   7.356
25381SOL    HW180990   8.467   3.914   7.304
25381SOL    HW280991   8.493   3.753   7.299
25382SOL     OW80992   7.952   3.774   7.326
25382SOL    HW180993   7.910   3.717   7.256
25382SOL    HW280994   7.886   3.843   7.358
25383SOL     OW80995   8.021   4.594   6.615
25383SOL    HW180996   8.065   4.683   6.606
25383SOL    HW280997   7.958   4.594   6.692
25384SOL     OW80998   8.808   4.586   6.631
25384SOL    HW180999   8.733   4.586   6.565
25384SOL    HW281000   8.845   4.494   6.640
25385SOL     OW81001   8.657   4.249   5.861
25385SOL    HW181002   8.670   4.165   5.915
25385SOL    HW281003   8.628   4.323   5.921
25386SOL     OW81004   7.755   3.937   6.817
25386SOL    HW181005   7.732   3.974   6.907
25386SOL    HW281006   7.725   3.842   6.811
25387SOL     OW81007   7.485   5.034   6.868
25387SOL    HW181008   7.538   4.985   6.936
25387SOL    HW281009   7.507   5.132   6.873
25388SOL     OW81010   9.176   4.659   7.440
25388SOL    HW181011   9.130   4.652   7.351
25388SOL    HW281012   9.114   4.703   7.506
25389SOL     OW81013   7.755   3.787   6.204
25389SOL    HW181014   7.744   3.881   6.237
25389SOL    HW281015   7.750   3.724   6.281
25390SOL     OW81016   9.070   4.091   5.960
25390SOL    HW181017   9.072   4.015   6.024
25390SOL    HW281018   9.022   4.168   6.000
25391SOL     OW81019   8.428   5.297   7.286
25391SOL    HW181020   8.408   5.341   7.198
25391SOL    HW281021   8.467   5.206   7.270
25392SOL     OW81022   9.307   5.242   7.191
25392SOL    HW181023   9.321   5.269   7.096
25392SOL    HW281024   9.390   5.264   7.244
25393SOL     OW81025   8.988   3.998   5.711
25393SOL    HW181026   8.927   3.923   5.734
25393SOL    HW281027   9.010   4.050   5.794
25394SOL     OW81028   8.751   4.562   5.628
25394SOL    HW181029   8.785   4.469   5.643
25394SOL    HW281030   8.769   4.589   5.533
25395SOL     OW81031   8.516   5.057   6.435
25395SOL    HW181032   8.523   4.973   6.380
25395SOL    HW281033   8.578   5.126   6.399
25396SOL     OW81034   7.767   4.534   6.535
25396SOL    HW181035   7.860   4.570   6.540
25396SOL    HW281036   7.761   4.449   6.587
25397SOL     OW81037   7.787   4.233   6.592
25397SOL    HW181038   7.735   4.150   6.575
25397SOL    HW281039   7.864   4.238   6.528
25398SOL     OW81040   8.608   3.931   7.063
25398SOL    HW181041   8.608   3.995   7.140
25398SOL    HW281042   8.636   3.979   6.980
25399SOL     OW81043   7.456   5.050   5.786
25399SOL    HW181044   7.363   5.071   5.755
25399SOL    HW281045   7.466   4.951   5.799
25400SOL     OW81046   7.536   5.525   6.513
25400SOL    HW181047   7.494   5.439   6.486
25400SOL    HW281048   7.630   5.528   6.479
25401SOL     OW81049   7.952   5.292   6.496
25401SOL    HW181050   8.018   5.366   6.505
25401SOL    HW281051   7.996   5.213   6.454
25402SOL     OW81052   8.450   4.520   6.824
25402SOL    HW181053   8.491   4.488   6.910
25402SOL    HW281054   8.354   4.493   6.821
25403SOL     OW81055   7.488   4.268   6.700
25403SOL    HW181056   7.573   4.235   6.659
25403SOL    HW281057   7.501   4.283   6.798
25404SOL     OW81058   7.637   4.244   7.308
25404SOL    HW181059   7.696   4.204   7.238
25404SOL    HW281060   7.579   4.315   7.267
25405SOL     OW81061   8.817   4.674   7.246
25405SOL    HW181062   8.856   4.763   7.266
25405SOL    HW281063   8.827   4.654   7.149
25406SOL     OW81064   9.105   4.328   6.792
25406SOL    HW181065   9.067   4.259   6.854
25406SOL    HW281066   9.187   4.292   6.748
25407SOL     OW81067   7.700   5.288   7.330
25407SOL    HW181068   7.670   5.345   7.406
25407SOL    HW281069   7.693   5.191   7.356
25408SOL     OW81070   8.119   4.188   6.855
25408SOL    HW181071   8.085   4.099   6.825
25408SOL    HW281072   8.145   4.242   6.775
25409SOL     OW81073   8.378   5.402   7.051
25409SOL    HW181074   8.354   5.384   6.956
25409SOL    HW281075   8.408   5.496   7.061
25410SOL     OW81076   7.607   4.861   7.052
25410SOL    HW181077   7.629   4.800   7.128
25410SOL    HW281078   7.617   4.812   6.966
25411SOL     OW81079   8.795   4.783   6.820
25411SOL    HW181080   8.819   4.720   6.746
25411SOL    HW281081   8.705   4.823   6.802
25412SOL     OW81082   8.750   4.579   5.895
25412SOL    HW181083   8.664   4.548   5.937
25412SOL    HW281084   8.746   4.565   5.796
25413SOL     OW81085   9.207   5.471   6.740
25413SOL    HW181086   9.268   5.501   6.667
25413SOL    HW281087   9.169   5.382   6.718
25414SOL     OW81088   8.700   5.455   6.714
25414SOL    HW181089   8.784   5.460   6.660
25414SOL    HW281090   8.677   5.359   6.732
25415SOL     OW81091   7.531   4.982   6.608
25415SOL    HW181092   7.526   4.981   6.708
25415SOL    HW281093   7.448   4.941   6.570
25416SOL     OW81094   8.136   5.386   7.302
25416SOL    HW181095   8.080   5.467   7.311
25416SOL    HW281096   8.188   5.390   7.216
25417SOL     OW81097   9.174   3.859   6.109
25417SOL    HW181098   9.247   3.842   6.042
25417SOL    HW281099   9.143   3.772   6.147
25418SOL     OW81100   8.836   5.297   6.063
25418SOL    HW181101   8.903   5.309   5.989
25418SOL    HW281102   8.796   5.386   6.086
25419SOL     OW81103   7.578   5.518   7.437
25419SOL    HW181104   7.537   5.444   7.490
25419SOL    HW281105   7.642   5.569   7.495
25420SOL     OW81106   8.728   4.651   6.258
25420SOL    HW181107   8.788   4.570   6.260
25420SOL    HW281108   8.768   4.720   6.198
25421SOL     OW81109   8.278   4.997   7.008
25421SOL    HW181110   8.273   5.030   7.103
25421SOL    HW281111   8.192   5.016   6.962
25422SOL     OW81112   8.120   5.340   5.740
25422SOL    HW181113   8.129   5.350   5.641
25422SOL    HW281114   8.080   5.251   5.761
25423SOL     OW81115   9.098   5.444   6.980
25423SOL    HW181116   9.151   5.454   6.896
25423SOL    HW281117   9.071   5.534   7.014
25424SOL     OW81118   9.289   3.899   6.549
25424SOL    HW181119   9.328   3.814   6.513
25424SOL    HW281120   9.191   3.901   6.530
25425SOL     OW81121   7.711   4.050   6.306
25425SOL    HW181122   7.632   4.101   6.272
25425SOL    HW281123   7.702   4.035   6.404
25426SOL     OW81124   8.642   5.336   5.617
25426SOL    HW181125   8.648   5.243   5.654
25426SOL    HW281126   8.583   5.336   5.537
25427SOL     OW81127   8.270   4.726   6.958
25427SOL    HW181128   8.310   4.725   6.866
25427SOL    HW281129   8.280   4.818   6.998
25428SOL     OW81130   8.364   4.634   5.877
25428SOL    HW181131   8.427   4.672   5.809
25428SOL    HW281132   8.404   4.551   5.916
25429SOL     OW81133   8.952   5.331   5.630
25429SOL    HW181134   8.860   5.368   5.637
25429SOL    HW281135   8.990   5.351   5.540
25430SOL     OW81136   7.820   5.012   7.076
25430SOL    HW181137   7.807   5.105   7.042
25430SOL    HW281138   7.736   4.960   7.063
25431SOL     OW81139   9.062   5.016   6.875
25431SOL    HW181140   9.122   5.019   6.955
25431SOL    HW281141   8.987   5.080   6.888
25432SOL     OW81142   8.487   4.822   6.282
25432SOL    HW181143   8.417   4.775   6.336
25432SOL    HW281144   8.546   4.754   6.239
25433SOL     OW81145   8.462   3.960   6.557
25433SOL    HW181146   8.454   3.924   6.464
25433SOL    HW281147   8.460   3.884   6.622
25434SOL     OW81148   8.038   5.211   6.077
25434SOL    HW181149   8.080   5.153   6.007
25434SOL    HW281150   7.994   5.290   6.033
25435SOL     OW81151   9.157   4.109   6.967
25435SOL    HW181152   9.230   4.178   6.971
25435SOL    HW281153   9.185   4.034   6.908
25436SOL     OW81154   7.703   5.072   5.876
25436SOL    HW181155   7.607   5.073   5.849
25436SOL    HW281156   7.715   5.125   5.960
25437SOL     OW81157   7.553   4.737   7.312
25437SOL    HW181158   7.476   4.704   7.366
25437SOL    HW281159   7.638   4.707   7.354
25438SOL     OW81160   8.120   3.927   7.075
25438SOL    HW181161   8.210   3.911   7.035
25438SOL    HW281162   8.128   3.932   7.174
25439SOL     OW81163   7.523   4.069   5.619
25439SOL    HW181164   7.431   4.041   5.590
25439SOL    HW281165   7.554   4.146   5.563
25440SOL     OW81166   8.888   4.580   6.984
25440SOL    HW181167   8.831   4.632   6.921
25440SOL    HW281168   8.984   4.592   6.960
25441SOL     OW81169   7.520   3.890   5.904
25441SOL    HW181170   7.503   3.973   5.850
25441SOL    HW281171   7.610   3.853   5.882
25442SOL     OW81172   8.631   5.059   5.705
25442SOL    HW181173   8.532   5.048   5.707
25442SOL    HW281174   8.665   5.074   5.798
25443SOL     OW81175   8.061   4.566   7.017
25443SOL    HW181176   8.117   4.647   7.000
25443SOL    HW281177   8.120   4.486   7.020
25444SOL     OW81178   8.941   5.491   6.545
25444SOL    HW181179   8.974   5.555   6.476
25444SOL    HW281180   9.007   5.485   6.620
25445SOL     OW81181   8.164   4.289   7.294
25445SOL    HW181182   8.183   4.354   7.368
25445SOL    HW281183   8.224   4.209   7.303
25446SOL     OW81184   8.898   4.944   7.219
25446SOL    HW181185   8.889   4.934   7.318
25446SOL    HW281186   8.994   4.937   7.193
25447SOL     OW81187   7.838   5.465   7.146
25447SOL    HW181188   7.747   5.506   7.144
25447SOL    HW281189   7.831   5.371   7.178
25448SOL     OW81190   9.122   4.607   6.840
25448SOL    HW181191   9.095   4.518   6.803
25448SOL    HW281192   9.123   4.675   6.767
25449SOL     OW81193   8.673   4.049   6.035
25449SOL    HW181194   8.738   3.975   6.024
25449SOL    HW281195   8.693   4.099   6.119
25450SOL     OW81196   8.042   4.469   6.238
25450SOL    HW181197   8.092   4.554   6.219
25450SOL    HW281198   7.954   4.471   6.190
25451SOL     OW81199   9.225   4.066   7.228
25451SOL    HW181200   9.208   4.097   7.134
25451SOL    HW281201   9.141   4.029   7.266
25452SOL     OW81202   9.178   4.658   7.103
25452SOL    HW181203   9.216   4.749   7.118
25452SOL    HW281204   9.170   4.641   7.004
25453SOL     OW81205   8.307   5.098   5.602
25453SOL    HW181206   8.261   5.113   5.690
25453SOL    HW281207   8.351   5.183   5.572
25454SOL     OW81208   8.109   5.514   6.539
25454SOL    HW181209   8.063   5.602   6.526
25454SOL    HW281210   8.208   5.526   6.532
25455SOL     OW81211   8.531   4.708   5.673
25455SOL    HW181212   8.508   4.761   5.591
25455SOL    HW281213   8.612   4.652   5.654
25456SOL     OW81214   9.309   5.293   6.437
25456SOL    HW181215   9.238   5.281   6.367
25456SOL    HW281216   9.310   5.214   6.497
25457SOL     OW81217   7.669   5.038   7.430
25457SOL    HW181218   7.604   4.965   7.409
25457SOL    HW281219   7.673   5.052   7.528
25458SOL     OW81220   7.527   4.964   6.239
25458SOL    HW181221   7.526   4.917   6.327
25458SOL    HW281222   7.609   4.936   6.188
25459SOL     OW81223   8.120   5.115   7.210
25459SOL    HW181224   8.042   5.065   7.248
25459SOL    HW281225   8.117   5.210   7.241
25460SOL     OW81226   9.272   3.916   6.813
25460SOL    HW181227   9.268   3.826   6.857
25460SOL    HW281228   9.275   3.905   6.714
25461SOL     OW81229   7.876   4.148   6.106
25461SOL    HW181230   7.906   4.076   6.044
25461SOL    HW281231   7.837   4.108   6.189
25462SOL     OW81232   9.153   5.211   6.690
25462SOL    HW181233   9.060   5.186   6.663
25462SOL    HW281234   9.179   5.161   6.772
25463SOL     OW81235   7.765   4.271   6.866
25463SOL    HW181236   7.803   4.212   6.938
25463SOL    HW281237   7.805   4.245   6.778
25464SOL     OW81238   8.260   5.310   6.273
25464SOL    HW181239   8.292   5.320   6.179
25464SOL    HW281240   8.181   5.248   6.275
25465SOL     OW81241   8.872   3.938   6.698
25465SOL    HW181242   8.924   3.873   6.753
25465SOL    HW281243   8.823   4.001   6.759
25466SOL     OW81244   8.449   3.758   6.740
25466SOL    HW181245   8.386   3.686   6.709
25466SOL    HW281246   8.542   3.722   6.740
25467SOL     OW81247   8.218   5.054   5.887
25467SOL    HW181248   8.172   4.967   5.904
25467SOL    HW281249   8.309   5.051   5.928
25468SOL     OW81250   8.066   5.291   6.870
25468SOL    HW181251   8.061   5.373   6.927
25468SOL    HW281252   8.155   5.288   6.825
25469SOL     OW81253   8.800   3.776   5.754
25469SOL    HW181254   8.835   3.735   5.670
25469SOL    HW281255   8.710   3.738   5.774
25470SOL     OW81256   8.748   4.177   6.277
25470SOL    HW181257   8.689   4.257   6.281
25470SOL    HW281258   8.763   4.142   6.370
25471SOL     OW81259   9.041   3.945   6.468
25471SOL    HW181260   8.957   3.944   6.522
25471SOL    HW281261   9.043   4.028   6.412
25472SOL     OW81262   7.487   4.801   5.886
25472SOL    HW181263   7.586   4.790   5.877
25472SOL    HW281264   7.447   4.715   5.918
25473SOL     OW81265   7.678   4.352   7.561
25473SOL    HW181266   7.585   4.350   7.598
25473SOL    HW281267   7.679   4.313   7.469
25474SOL     OW81268   7.673   3.999   8.444
25474SOL    HW181269   7.708   3.982   8.536
25474SOL    HW281270   7.585   3.954   8.432
25475SOL     OW81271   7.467   4.092   8.095
25475SOL    HW181272   7.385   4.135   8.134
25475SOL    HW281273   7.439   4.019   8.032
25476SOL     OW81274   8.017   4.999   8.613
25476SOL    HW181275   7.924   4.992   8.576
25476SOL    HW281276   8.028   5.088   8.657
25477SOL     OW81277   9.003   5.235   8.151
25477SOL    HW181278   8.946   5.219   8.232
25477SOL    HW281279   8.944   5.245   8.071
25478SOL     OW81280   8.583   4.427   8.165
25478SOL    HW181281   8.640   4.505   8.140
25478SOL    HW281282   8.523   4.453   8.241
25479SOL     OW81283   9.203   4.331   7.679
25479SOL    HW181284   9.191   4.318   7.580
25479SOL    HW281285   9.173   4.250   7.728
25480SOL     OW81286   8.216   4.868   8.471
25480SOL    HW181287   8.138   4.885   8.531
25480SOL    HW281288   8.250   4.955   8.435
25481SOL     OW81289   8.298   4.522   9.271
25481SOL    HW181290   8.294   4.598   9.336
25481SOL    HW281291   8.320   4.558   9.180
25482SOL     OW81292   8.133   4.736   8.113
25482SOL    HW181293   8.202   4.720   8.183
25482SOL    HW281294   8.060   4.793   8.151
25483SOL     OW81295   8.134   4.885   9.251
25483SOL    HW181296   8.194   4.964   9.265
25483SOL    HW281297   8.048   4.916   9.210
25484SOL     OW81298   7.783   5.159   8.509
25484SOL    HW181299   7.705   5.128   8.456
25484SOL    HW281300   7.841   5.217   8.452
25485SOL     OW81301   8.908   5.229   8.787
25485SOL    HW181302   8.932   5.323   8.813
25485SOL    HW281303   8.892   5.175   8.869
25486SOL     OW81304   7.886   4.116   8.947
25486SOL    HW181305   7.968   4.060   8.956
25486SOL    HW281306   7.805   4.058   8.951
25487SOL     OW81307   9.051   4.171   8.185
25487SOL    HW181308   8.977   4.217   8.135
25487SOL    HW281309   9.102   4.239   8.238
25488SOL     OW81310   7.679   5.437   7.931
25488SOL    HW181311   7.713   5.514   7.985
25488SOL    HW281312   7.723   5.437   7.841
25489SOL     OW81313   8.575   5.065   9.138
25489SOL    HW181314   8.622   5.065   9.226
25489SOL    HW281315   8.527   4.978   9.127
25490SOL     OW81316   7.678   5.158   7.986
25490SOL    HW181317   7.652   5.254   7.986
25490SOL    HW281318   7.607   5.104   8.031
25491SOL     OW81319   7.688   4.815   8.334
25491SOL    HW181320   7.702   4.731   8.386
25491SOL    HW281321   7.633   4.879   8.389
25492SOL     OW81322   8.068   5.510   8.887
25492SOL    HW181323   7.976   5.493   8.922
25492SOL    HW281324   8.096   5.602   8.913
25493SOL     OW81325   8.054   4.688   7.571
25493SOL    HW181326   8.061   4.772   7.517
25493SOL    HW281327   8.100   4.701   7.659
25494SOL     OW81328   9.042   3.838   8.928
25494SOL    HW181329   9.024   3.905   8.856
25494SOL    HW281330   9.039   3.884   9.017
25495SOL     OW81331   7.570   4.367   8.011
25495SOL    HW181332   7.525   4.279   8.028
25495SOL    HW281333   7.569   4.421   8.095
25496SOL     OW81334   7.475   5.320   7.565
25496SOL    HW181335   7.456   5.224   7.586
25496SOL    HW281336   7.442   5.378   7.640
25497SOL     OW81337   9.137   4.646   8.060
25497SOL    HW181338   9.232   4.617   8.068
25497SOL    HW281339   9.129   4.711   7.985
25498SOL     OW81340   9.089   4.832   7.880
25498SOL    HW181341   9.175   4.834   7.828
25498SOL    HW281342   9.103   4.879   7.968
25499SOL     OW81343   7.561   4.461   9.045
25499SOL    HW181344   7.649   4.448   9.090
25499SOL    HW281345   7.548   4.558   9.023
25500SOL     OW81346   8.061   5.089   8.174
25500SOL    HW181347   8.012   5.002   8.183
25500SOL    HW281348   8.038   5.132   8.087
25501SOL     OW81349   8.741   4.952   8.871
25501SOL    HW181350   8.778   4.879   8.813
25501SOL    HW281351   8.793   4.957   8.956
25502SOL     OW81352   8.257   3.728   7.950
25502SOL    HW181353   8.297   3.819   7.941
25502SOL    HW281354   8.157   3.736   7.956
25503SOL     OW81355   7.645   4.700   8.712
25503SOL    HW181356   7.734   4.655   8.698
25503SOL    HW281357   7.572   4.635   8.693
25504SOL     OW81358   8.973   4.723   7.638
25504SOL    HW181359   8.910   4.647   7.651
25504SOL    HW281360   9.021   4.741   7.724
25505SOL     OW81361   7.765   3.975   9.249
25505SOL    HW181362   7.836   4.046   9.255
25505SOL    HW281363   7.677   4.014   9.277
25506SOL     OW81364   8.914   5.141   8.401
25506SOL    HW181365   8.855   5.147   8.481
25506SOL    HW281366   8.899   5.053   8.355
25507SOL     OW81367   9.115   5.438   8.020
25507SOL    HW181368   9.074   5.415   7.932
25507SOL    HW281369   9.097   5.364   8.085
25508SOL     OW81370   8.046   4.453   7.718
25508SOL    HW181371   8.070   4.522   7.650
25508SOL    HW281372   7.968   4.486   7.772
25509SOL     OW81373   8.729   4.069   8.392
25509SOL    HW181374   8.643   4.019   8.379
25509SOL    HW281375   8.791   4.015   8.448
25510SOL     OW81376   9.024   5.386   7.755
25510SOL    HW181377   9.113   5.432   7.758
25510SOL    HW281378   9.003   5.362   7.660
25511SOL     OW81379   8.255   4.329   8.913
25511SOL    HW181380   8.208   4.326   9.002
25511SOL    HW281381   8.204   4.274   8.847
25512SOL     OW81382   8.842   4.193   9.122
25512SOL    HW181383   8.822   4.236   9.210
25512SOL    HW281384   8.920   4.131   9.131
25513SOL     OW81385   8.421   4.614   9.020
25513SOL    HW181386   8.467   4.530   8.991
25513SOL    HW281387   8.365   4.648   8.945
25514SOL     OW81388   8.439   4.134   8.690
25514SOL    HW181389   8.362   4.168   8.744
25514SOL    HW281390   8.405   4.083   8.611
25515SOL     OW81391   8.489   4.425   7.877
25515SOL    HW181392   8.515   4.421   7.973
25515SOL    HW281393   8.404   4.374   7.863
25516SOL     OW81394   7.524   4.535   8.237
25516SOL    HW181395   7.623   4.523   8.246
25516SOL    HW281396   7.500   4.630   8.258
25517SOL     OW81397   7.578   5.545   9.019
25517SOL    HW181398   7.568   5.530   9.118
25517SOL    HW281399   7.492   5.581   8.983
25518SOL     OW81400   8.313   4.072   7.643
25518SOL    HW181401   8.372   4.135   7.594
25518SOL    HW281402   8.332   3.978   7.614
25519SOL     OW81403   9.167   4.309   9.279
25519SOL    HW181404   9.141   4.398   9.243
25519SOL    HW281405   9.165   4.241   9.206
25520SOL     OW81406   8.810   4.868   7.993
25520SOL    HW181407   8.893   4.839   7.945
25520SOL    HW281408   8.761   4.935   7.937
25521SOL     OW81409   7.998   3.920   8.333
25521SOL    HW181410   7.993   3.915   8.433
25521SOL    HW281411   8.000   4.016   8.304
25522SOL     OW81412   8.456   5.180   7.925
25522SOL    HW181413   8.410   5.252   7.873
25522SOL    HW281414   8.452   5.200   8.023
25523SOL     OW81415   7.799   5.525   8.301
25523SOL    HW181416   7.849   5.439   8.307
25523SOL    HW281417   7.864   5.602   8.298
25524SOL     OW81418   9.243   4.790   8.321
25524SOL    HW181419   9.181   4.775   8.245
25524SOL    HW281420   9.191   4.801   8.406
25525SOL     OW81421   8.675   5.274   8.954
25525SOL    HW181422   8.681   5.197   9.018
25525SOL    HW281423   8.623   5.248   8.874
25526SOL     OW81424   7.769   4.667   7.690
25526SOL    HW181425   7.851   4.706   7.648
25526SOL    HW281426   7.742   4.585   7.641
25527SOL     OW81427   8.906   4.459   8.176
25527SOL    HW181428   8.901   4.394   8.251
25527SOL    HW281429   8.986   4.518   8.189
25528SOL     OW81430   7.909   4.990   9.175
25528SOL    HW181431   7.859   4.991   9.089
25528SOL    HW281432   7.846   4.972   9.251
25529SOL     OW81433   8.559   5.500   7.685
25529SOL    HW181434   8.499   5.438   7.735
25529SOL    HW281435   8.590   5.456   7.600
25530SOL     OW81436   7.650   4.009   8.946
25530SOL    HW181437   7.570   4.069   8.933
25530SOL    HW281438   7.640   3.960   9.032
25531SOL     OW81439   9.080   5.101   7.529
25531SOL    HW181440   9.048   5.195   7.519
25531SOL    HW281441   9.004   5.038   7.517
25532SOL     OW81442   7.912   5.467   7.771
25532SOL    HW181443   7.945   5.506   7.857
25532SOL    HW281444   7.988   5.460   7.706
25533SOL     OW81445   8.848   3.831   7.874
25533SOL    HW181446   8.824   3.794   7.784
25533SOL    HW281447   8.947   3.847   7.878
25534SOL     OW81448   7.697   5.509   8.689
25534SOL    HW181449   7.754   5.444   8.739
25534SOL    HW281450   7.681   5.476   8.596
25535SOL     OW81451   8.388   5.422   8.352
25535SOL    HW181452   8.468   5.365   8.373
25535SOL    HW281453   8.339   5.382   8.275
25536SOL     OW81454   7.830   4.424   7.928
25536SOL    HW181455   7.875   4.334   7.925
25536SOL    HW281456   7.736   4.413   7.961
25537SOL     OW81457   8.995   3.946   9.177
25537SOL    HW181458   8.990   3.983   9.269
25537SOL    HW281459   8.923   3.877   9.165
25538SOL     OW81460   8.062   3.846   7.565
25538SOL    HW181461   8.160   3.824   7.572
25538SOL    HW281462   8.031   3.829   7.472
25539SOL     OW81463   8.229   3.988   9.197
25539SOL    HW181464   8.296   3.927   9.240
25539SOL    HW281465   8.156   4.007   9.262
25540SOL     OW81466   8.336   5.238   8.643
25540SOL    HW181467   8.313   5.213   8.549
25540SOL    HW281468   8.397   5.169   8.682
25541SOL     OW81469   8.799   4.314   8.881
25541SOL    HW181470   8.827   4.271   8.966
25541SOL    HW281471   8.824   4.410   8.882
25542SOL     OW81472   8.251   5.126   8.372
25542SOL    HW181473   8.341   5.140   8.330
25542SOL    HW281474   8.180   5.128   8.301
25543SOL     OW81475   8.370   4.227   8.347
25543SOL    HW181476   8.345   4.218   8.251
25543SOL    HW281477   8.418   4.145   8.378
25544SOL     OW81478   7.987   3.788   7.960
25544SOL    HW181479   7.906   3.789   8.018
25544SOL    HW281480   7.990   3.871   7.905
25545SOL     OW81481   8.882   4.912   7.489
25545SOL    HW181482   8.914   4.836   7.546
25545SOL    HW281483   8.790   4.939   7.519
25546SOL     OW81484   8.383   3.960   7.928
25546SOL    HW181485   8.335   4.001   7.850
25546SOL    HW281486   8.482   3.958   7.909
25547SOL     OW81487   8.524   4.407   8.912
25547SOL    HW181488   8.444   4.346   8.915
25547SOL    HW281489   8.605   4.354   8.888
25548SOL     OW81490   8.675   5.294   8.241
25548SOL    HW181491   8.696   5.368   8.176
25548SOL    HW281492   8.743   5.294   8.314
25549SOL     OW81493   7.907   4.876   8.189
25549SOL    HW181494   7.836   4.849   8.254
25549SOL    HW281495   7.881   4.848   8.096
25550SOL     OW81496   8.719   5.521   8.039
25550SOL    HW181497   8.763   5.585   7.975
25550SOL    HW281498   8.669   5.573   8.109
25551SOL     OW81499   8.480   4.273   7.464
25551SOL    HW181500   8.439   4.355   7.425
25551SOL    HW281501   8.544   4.299   7.537
25552SOL     OW81502   7.526   4.280   8.834
25552SOL    HW181503   7.618   4.279   8.793
25552SOL    HW281504   7.520   4.354   8.901
25553SOL     OW81505   8.009   3.946   8.595
25553SOL    HW181506   8.047   3.862   8.632
25553SOL    HW281507   7.921   3.965   8.639
25554SOL     OW81508   8.314   4.178   8.090
25554SOL    HW181509   8.282   4.250   8.028
25554SOL    HW281510   8.338   4.097   8.037
25555SOL     OW81511   8.465   3.763   8.201
25555SOL    HW181512   8.393   3.768   8.132
25555SOL    HW281513   8.441   3.694   8.270
25556SOL     OW81514   8.877   4.897   8.315
25556SOL    HW181515   8.822   4.813   8.308
25556SOL    HW281516   8.903   4.926   8.223
25557SOL     OW81517   8.914   4.314   8.440
25557SOL    HW181518   8.884   4.219   8.447
25557SOL    HW281519   8.987   4.330   8.506
25558SOL     OW81520   9.305   4.557   7.825
25558SOL    HW181521   9.347   4.493   7.889
25558SOL    HW281522   9.267   4.506   7.747
25559SOL     OW81523   7.936   5.109   7.622
25559SOL    HW181524   7.849   5.094   7.669
25559SOL    HW281525   7.919   5.135   7.527
25560SOL     OW81526   9.112   5.004   8.105
25560SOL    HW181527   9.211   5.012   8.119
25560SOL    HW281528   9.067   5.088   8.136
25561SOL     OW81529   8.838   4.299   7.526
25561SOL    HW181530   8.784   4.278   7.607
25561SOL    HW281531   8.929   4.258   7.535
25562SOL     OW81532   7.975   3.980   7.776
25562SOL    HW181533   8.002   3.921   7.701
25562SOL    HW281534   7.975   4.075   7.745
25563SOL     OW81535   9.202   4.947   9.036
25563SOL    HW181536   9.293   4.908   9.023
25563SOL    HW281537   9.210   5.043   9.060
25564SOL     OW81538   8.512   5.071   8.788
25564SOL    HW181539   8.432   5.048   8.843
25564SOL    HW281540   8.595   5.045   8.837
25565SOL     OW81541   9.040   5.353   9.073
25565SOL    HW181542   9.067   5.387   8.983
25565SOL    HW281543   9.119   5.315   9.119
25566SOL     OW81544   8.559   4.919   8.548
25566SOL    HW181545   8.519   4.963   8.629
25566SOL    HW281546   8.518   4.956   8.465
25567SOL     OW81547   9.086   4.823   8.527
25567SOL    HW181548   9.091   4.904   8.586
25567SOL    HW281549   9.000   4.825   8.476
25568SOL     OW81550   8.363   3.813   8.850
25568SOL    HW181551   8.388   3.793   8.755
25568SOL    HW281552   8.435   3.869   8.892
25569SOL     OW81553   8.428   4.840   9.167
25569SOL    HW181554   8.329   4.846   9.177
25569SOL    HW281555   8.451   4.760   9.111
25570SOL     OW81556   8.153   4.774   7.816
25570SOL    HW181557   8.139   4.781   7.915
25570SOL    HW281558   8.237   4.723   7.798
25571SOL     OW81559   7.858   4.537   8.699
25571SOL    HW181560   7.944   4.549   8.749
25571SOL    HW281561   7.816   4.450   8.726
25572SOL     OW81562   8.722   4.110   8.710
25572SOL    HW181563   8.743   4.184   8.774
25572SOL    HW281564   8.633   4.127   8.667
25573SOL     OW81565   7.512   5.288   8.779
25573SOL    HW181566   7.466   5.370   8.745
25573SOL    HW281567   7.610   5.307   8.788
25574SOL     OW81568   7.815   4.824   7.949
25574SOL    HW181569   7.808   4.907   7.893
25574SOL    HW281570   7.819   4.744   7.889
25575SOL     OW81571   8.014   4.261   8.313
25575SOL    HW181572   8.026   4.327   8.239
25575SOL    HW281573   8.060   4.295   8.396
25576SOL     OW81574   8.700   5.072   7.836
25576SOL    HW181575   8.750   5.149   7.876
25576SOL    HW281576   8.605   5.074   7.868
25577SOL     OW81577   8.720   5.169   8.590
25577SOL    HW181578   8.767   5.182   8.677
25577SOL    HW281579   8.654   5.095   8.599
25578SOL     OW81580   9.030   4.363   7.920
25578SOL    HW181581   8.999   4.424   7.993
25578SOL    HW281582   9.080   4.415   7.851
25579SOL     OW81583   7.802   5.234   8.777
25579SOL    HW181584   7.781   5.190   8.690
25579SOL    HW281585   7.899   5.260   8.780
25580SOL     OW81586   7.850   4.475   9.046
25580SOL    HW181587   7.918   4.530   8.999
25580SOL    HW281588   7.890   4.387   9.073
25581SOL     OW81589   9.035   4.503   9.118
25581SOL    HW181590   8.943   4.541   9.113
25581SOL    HW281591   9.095   4.550   9.053
25582SOL     OW81592   8.461   3.829   9.218
25582SOL    HW181593   8.467   3.914   9.166
25582SOL    HW281594   8.493   3.753   9.161
25583SOL     OW81595   7.952   3.774   9.188
25583SOL    HW181596   7.910   3.717   9.118
25583SOL    HW281597   7.886   3.843   9.220
25584SOL     OW81598   8.021   4.594   8.477
25584SOL    HW181599   8.065   4.683   8.468
25584SOL    HW281600   7.958   4.594   8.554
25585SOL     OW81601   8.808   4.586   8.493
25585SOL    HW181602   8.733   4.586   8.427
25585SOL    HW281603   8.845   4.494   8.502
25586SOL     OW81604   8.657   4.249   7.723
25586SOL    HW181605   8.670   4.165   7.777
25586SOL    HW281606   8.628   4.323   7.783
25587SOL     OW81607   7.755   3.937   8.679
25587SOL    HW181608   7.732   3.974   8.769
25587SOL    HW281609   7.725   3.842   8.673
25588SOL     OW81610   7.485   5.034   8.730
25588SOL    HW181611   7.538   4.985   8.798
25588SOL    HW281612   7.507   5.132   8.735
25589SOL     OW81613   8.180   4.358   8.512
25589SOL    HW181614   8.239   4.332   8.436
25589SOL    HW281615   8.152   4.454   8.501
25590SOL     OW81616   9.176   4.659   9.302
25590SOL    HW181617   9.130   4.652   9.213
25590SOL    HW281618   9.114   4.703   9.368
25591SOL     OW81619   7.755   3.787   8.066
25591SOL    HW181620   7.744   3.881   8.099
25591SOL    HW281621   7.750   3.724   8.143
25592SOL     OW81622   9.070   4.091   7.822
25592SOL    HW181623   9.072   4.015   7.886
25592SOL    HW281624   9.022   4.168   7.862
25593SOL     OW81625   8.471   4.490   8.414
25593SOL    HW181626   8.486   4.511   8.510
25593SOL    HW281627   8.441   4.395   8.405
25594SOL     OW81628   8.428   5.297   9.148
25594SOL    HW181629   8.408   5.341   9.060
25594SOL    HW281630   8.467   5.206   9.132
25595SOL     OW81631   9.307   5.242   9.053
25595SOL    HW181632   9.321   5.269   8.958
25595SOL    HW281633   9.390   5.264   9.106
25596SOL     OW81634   7.798   4.622   9.252
25596SOL    HW181635   7.874   4.666   9.300
25596SOL    HW281636   7.833   4.575   9.170
25597SOL     OW81637   8.988   3.998   7.573
25597SOL    HW181638   8.927   3.923   7.596
25597SOL    HW281639   9.010   4.050   7.656
25598SOL     OW81640   7.767   4.534   8.397
25598SOL    HW181641   7.860   4.570   8.402
25598SOL    HW281642   7.761   4.449   8.449
25599SOL     OW81643   7.787   4.233   8.454
25599SOL    HW181644   7.735   4.150   8.437
25599SOL    HW281645   7.864   4.238   8.390
25600SOL     OW81646   8.586   4.104   9.126
25600SOL    HW181647   8.541   4.167   9.190
25600SOL    HW281648   8.679   4.135   9.109
25601SOL     OW81649   8.608   3.931   8.925
25601SOL    HW181650   8.608   3.995   9.002
25601SOL    HW281651   8.636   3.979   8.842
25602SOL     OW81652   7.456   5.050   7.648
25602SOL    HW181653   7.363   5.071   7.617
25602SOL    HW281654   7.466   4.951   7.661
25603SOL     OW81655   7.536   5.525   8.375
25603SOL    HW181656   7.494   5.439   8.348
25603SOL    HW281657   7.630   5.528   8.341
25604SOL     OW81658   7.952   5.292   8.358
25604SOL    HW181659   8.018   5.366   8.367
25604SOL    HW281660   7.996   5.213   8.316
25605SOL     OW81661   8.450   4.520   8.686
25605SOL    HW181662   8.491   4.488   8.772
25605SOL    HW281663   8.354   4.493   8.683
25606SOL     OW81664   7.488   4.268   8.562
25606SOL    HW181665   7.573   4.235   8.521
25606SOL    HW281666   7.501   4.283   8.660
25607SOL     OW81667   7.637   4.244   9.170
25607SOL    HW181668   7.696   4.204   9.100
25607SOL    HW281669   7.579   4.315   9.129
25608SOL     OW81670   8.817   4.674   9.108
25608SOL    HW181671   8.856   4.763   9.128
25608SOL    HW281672   8.827   4.654   9.011
25609SOL     OW81673   8.263   4.296   7.773
25609SOL    HW181674   8.270   4.207   7.727
25609SOL    HW281675   8.169   4.330   7.765
25610SOL     OW81676   9.105   4.328   8.654
25610SOL    HW181677   9.067   4.259   8.716
25610SOL    HW281678   9.187   4.292   8.610
25611SOL     OW81679   7.700   5.288   9.192
25611SOL    HW181680   7.670   5.345   9.268
25611SOL    HW281681   7.693   5.191   9.218
25612SOL     OW81682   8.119   4.188   8.717
25612SOL    HW181683   8.085   4.099   8.687
25612SOL    HW281684   8.145   4.242   8.637
25613SOL     OW81685   8.378   5.402   8.913
25613SOL    HW181686   8.354   5.384   8.818
25613SOL    HW281687   8.408   5.496   8.923
25614SOL     OW81688   7.921   4.224   7.639
25614SOL    HW181689   7.982   4.304   7.643
25614SOL    HW281690   7.826   4.255   7.646
25615SOL     OW81691   7.607   4.861   8.914
25615SOL    HW181692   7.629   4.800   8.990
25615SOL    HW281693   7.617   4.812   8.828
25616SOL     OW81694   8.795   4.783   8.682
25616SOL    HW181695   8.819   4.720   8.608
25616SOL    HW281696   8.705   4.823   8.664
25617SOL     OW81697   8.750   4.579   7.757
25617SOL    HW181698   8.664   4.548   7.799
25617SOL    HW281699   8.746   4.565   7.658
25618SOL     OW81700   9.207   5.471   8.602
25618SOL    HW181701   9.268   5.501   8.529
25618SOL    HW281702   9.169   5.382   8.580
25619SOL     OW81703   8.700   5.455   8.576
25619SOL    HW181704   8.784   5.460   8.522
25619SOL    HW281705   8.677   5.359   8.594
25620SOL     OW81706   7.531   4.982   8.470
25620SOL    HW181707   7.526   4.981   8.570
25620SOL    HW281708   7.448   4.941   8.432
25621SOL     OW81709   8.136   5.386   9.164
25621SOL    HW181710   8.080   5.467   9.173
25621SOL    HW281711   8.188   5.390   9.078
25622SOL     OW81712   9.174   3.859   7.971
25622SOL    HW181713   9.247   3.842   7.904
25622SOL    HW281714   9.143   3.772   8.009
25623SOL     OW81715   8.836   5.297   7.925
25623SOL    HW181716   8.903   5.309   7.851
25623SOL    HW281717   8.796   5.386   7.948
25624SOL     OW81718   7.578   5.518   9.299
25624SOL    HW181719   7.537   5.444   9.352
25624SOL    HW281720   7.642   5.569   9.357
25625SOL     OW81721   8.728   4.651   8.120
25625SOL    HW181722   8.788   4.570   8.122
25625SOL    HW281723   8.768   4.720   8.060
25626SOL     OW81724   8.278   4.997   8.870
25626SOL    HW181725   8.273   5.030   8.965
25626SOL    HW281726   8.192   5.016   8.824
25627SOL     OW81727   8.120   5.340   7.602
25627SOL    HW181728   8.129   5.350   7.503
25627SOL    HW281729   8.080   5.251   7.623
25628SOL     OW81730   9.098   5.444   8.842
25628SOL    HW181731   9.151   5.454   8.758
25628SOL    HW281732   9.071   5.534   8.876
25629SOL     OW81733   9.289   3.899   8.411
25629SOL    HW181734   9.328   3.814   8.375
25629SOL    HW281735   9.191   3.901   8.392
25630SOL     OW81736   7.711   4.050   8.168
25630SOL    HW181737   7.632   4.101   8.134
25630SOL    HW281738   7.702   4.035   8.266
25631SOL     OW81739   8.642   5.336   7.479
25631SOL    HW181740   8.648   5.243   7.516
25631SOL    HW281741   8.583   5.336   7.399
25632SOL     OW81742   8.270   4.726   8.820
25632SOL    HW181743   8.310   4.725   8.728
25632SOL    HW281744   8.280   4.818   8.860
25633SOL     OW81745   8.364   4.634   7.739
25633SOL    HW181746   8.427   4.672   7.671
25633SOL    HW281747   8.404   4.551   7.778
25634SOL     OW81748   8.952   5.331   7.492
25634SOL    HW181749   8.860   5.368   7.499
25634SOL    HW281750   8.990   5.351   7.402
25635SOL     OW81751   7.820   5.012   8.938
25635SOL    HW181752   7.807   5.105   8.904
25635SOL    HW281753   7.736   4.960   8.925
25636SOL     OW81754   9.062   5.016   8.737
25636SOL    HW181755   9.122   5.019   8.817
25636SOL    HW281756   8.987   5.080   8.750
25637SOL     OW81757   8.487   4.822   8.144
25637SOL    HW181758   8.417   4.775   8.198
25637SOL    HW281759   8.546   4.754   8.101
25638SOL     OW81760   8.462   3.960   8.419
25638SOL    HW181761   8.454   3.924   8.326
25638SOL    HW281762   8.460   3.884   8.484
25639SOL     OW81763   9.157   4.109   8.829
25639SOL    HW181764   9.230   4.178   8.833
25639SOL    HW281765   9.185   4.034   8.770
25640SOL     OW81766   7.703   5.072   7.738
25640SOL    HW181767   7.607   5.073   7.711
25640SOL    HW281768   7.715   5.125   7.822
25641SOL     OW81769   7.553   4.737   9.174
25641SOL    HW181770   7.476   4.704   9.228
25641SOL    HW281771   7.638   4.707   9.216
25642SOL     OW81772   8.120   3.927   8.937
25642SOL    HW181773   8.210   3.911   8.897
25642SOL    HW281774   8.128   3.932   9.036
25643SOL     OW81775   7.523   4.069   7.481
25643SOL    HW181776   7.431   4.041   7.452
25643SOL    HW281777   7.554   4.146   7.425
25644SOL     OW81778   8.888   4.580   8.846
25644SOL    HW181779   8.831   4.632   8.783
25644SOL    HW281780   8.984   4.592   8.822
25645SOL     OW81781   7.520   3.890   7.766
25645SOL    HW181782   7.503   3.973   7.712
25645SOL    HW281783   7.610   3.853   7.744
25646SOL     OW81784   8.631   5.059   7.567
25646SOL    HW181785   8.532   5.048   7.569
25646SOL    HW281786   8.665   5.074   7.660
25647SOL     OW81787   8.061   4.566   8.879
25647SOL    HW181788   8.117   4.647   8.862
25647SOL    HW281789   8.120   4.486   8.882
25648SOL     OW81790   8.941   5.491   8.407
25648SOL    HW181791   8.974   5.555   8.338
25648SOL    HW281792   9.007   5.485   8.482
25649SOL     OW81793   8.164   4.289   9.156
25649SOL    HW181794   8.183   4.354   9.230
25649SOL    HW281795   8.224   4.209   9.165
25650SOL     OW81796   8.898   4.944   9.081
25650SOL    HW181797   8.889   4.934   9.180
25650SOL    HW281798   8.994   4.937   9.055
25651SOL     OW81799   7.838   5.465   9.008
25651SOL    HW181800   7.747   5.506   9.006
25651SOL    HW281801   7.831   5.371   9.040
25652SOL     OW81802   9.122   4.607   8.702
25652SOL    HW181803   9.095   4.518   8.665
25652SOL    HW281804   9.123   4.675   8.629
25653SOL     OW81805   8.673   4.049   7.897
25653SOL    HW181806   8.738   3.975   7.886
25653SOL    HW281807   8.693   4.099   7.981
25654SOL     OW81808   8.042   4.469   8.100
25654SOL    HW181809   8.092   4.554   8.081
25654SOL    HW281810   7.954   4.471   8.052
25655SOL     OW81811   9.225   4.066   9.090
25655SOL    HW181812   9.208   4.097   8.996
25655SOL    HW281813   9.141   4.029   9.128
25656SOL     OW81814   9.178   4.658   8.965
25656SOL    HW181815   9.216   4.749   8.980
25656SOL    HW281816   9.170   4.641   8.866
25657SOL     OW81817   8.307   5.098   7.464
25657SOL    HW181818   8.261   5.113   7.552
25657SOL    HW281819   8.351   5.183   7.434
25658SOL     OW81820   8.109   5.514   8.401
25658SOL    HW181821   8.063   5.602   8.388
25658SOL    HW281822   8.208   5.526   8.394
25659SOL     OW81823   8.307   4.680   8.309
25659SOL    HW181824   8.361   4.611   8.357
25659SOL    HW281825   8.275   4.749   8.375
25660SOL     OW81826   8.531   4.708   7.535
25660SOL    HW181827   8.508   4.761   7.453
25660SOL    HW281828   8.612   4.652   7.516
25661SOL     OW81829   9.309   5.293   8.299
25661SOL    HW181830   9.238   5.281   8.229
25661SOL    HW281831   9.310   5.214   8.359
25662SOL     OW81832   7.669   5.038   9.292
25662SOL    HW181833   7.604   4.965   9.271
25662SOL    HW281834   7.673   5.052   9.390
25663SOL     OW81835   7.527   4.964   8.101
25663SOL    HW181836   7.526   4.917   8.189
25663SOL    HW281837   7.609   4.936   8.050
25664SOL     OW81838   8.120   5.115   9.072
25664SOL    HW181839   8.042   5.065   9.110
25664SOL    HW281840   8.117   5.210   9.103
25665SOL     OW81841   9.272   3.916   8.675
25665SOL    HW181842   9.268   3.826   8.719
25665SOL    HW281843   9.275   3.905   8.576
25666SOL     OW81844   7.876   4.148   7.968
25666SOL    HW181845   7.906   4.076   7.906
25666SOL    HW281846   7.837   4.108   8.051
25667SOL     OW81847   9.153   5.211   8.552
25667SOL    HW181848   9.060   5.186   8.525
25667SOL    HW281849   9.179   5.161   8.634
25668SOL     OW81850   7.765   4.271   8.728
25668SOL    HW181851   7.803   4.212   8.800
25668SOL    HW281852   7.805   4.245   8.640
25669SOL     OW81853   8.260   5.310   8.135
25669SOL    HW181854   8.292   5.320   8.041
25669SOL    HW281855   8.181   5.248   8.137
25670SOL     OW81856   8.872   3.938   8.560
25670SOL    HW181857   8.924   3.873   8.615
25670SOL    HW281858   8.823   4.001   8.621
25671SOL     OW81859   8.449   3.758   8.602
25671SOL    HW181860   8.386   3.686   8.571
25671SOL    HW281861   8.542   3.722   8.602
25672SOL     OW81862   8.218   5.054   7.749
25672SOL    HW181863   8.172   4.967   7.766
25672SOL    HW281864   8.309   5.051   7.790
25673SOL     OW81865   8.066   5.291   8.732
25673SOL    HW181866   8.061   5.373   8.789
25673SOL    HW281867   8.155   5.288   8.687
25674SOL     OW81868   8.800   3.776   7.616
25674SOL    HW181869   8.835   3.735   7.532
25674SOL    HW281870   8.710   3.738   7.636
25675SOL     OW81871   8.748   4.177   8.139
25675SOL    HW181872   8.689   4.257   8.143
25675SOL    HW281873   8.763   4.142   8.232
25676SOL     OW81874   9.041   3.945   8.330
25676SOL    HW181875   8.957   3.944   8.384
25676SOL    HW281876   9.043   4.028   8.274
25677SOL     OW81877   7.487   4.801   7.748
25677SOL    HW181878   7.586   4.790   7.739
25677SOL    HW281879   7.447   4.715   7.780
25678SOL     OW81880   8.323   5.370   7.785
25678SOL    HW181881   8.246   5.335   7.731
25678SOL    HW281882   8.291   5.441   7.847
25679SOL     OW81883   7.678   4.352   9.423
25679SOL    HW181884   7.585   4.350   9.460
25679SOL    HW281885   7.679   4.313   9.331
25680SOL     OW81886   9.203   4.331   9.541
25680SOL    HW181887   9.191   4.318   9.442
25680SOL    HW281888   9.173   4.250   9.590
25681SOL     OW81889   7.679   5.437   9.793
25681SOL    HW181890   7.713   5.514   9.847
25681SOL    HW281891   7.723   5.437   9.703
25682SOL     OW81892   7.678   5.158   9.848
25682SOL    HW181893   7.652   5.254   9.848
25682SOL    HW281894   7.607   5.104   9.893
25683SOL     OW81895   8.054   4.688   9.433
25683SOL    HW181896   8.061   4.772   9.379
25683SOL    HW281897   8.100   4.701   9.521
25684SOL     OW81898   7.570   4.367   9.873
25684SOL    HW181899   7.525   4.279   9.890
25684SOL    HW281900   7.569   4.421   9.957
25685SOL     OW81901   9.290   5.491   9.669
25685SOL    HW181902   9.344   5.462   9.749
25685SOL    HW281903   9.320   5.581   9.640
25686SOL     OW81904   7.475   5.320   9.427
25686SOL    HW181905   7.456   5.224   9.448
25686SOL    HW281906   7.442   5.378   9.502
25687SOL     OW81907   9.137   4.646   9.922
25687SOL    HW181908   9.232   4.617   9.930
25687SOL    HW281909   9.129   4.711   9.847
25688SOL     OW81910   9.089   4.832   9.742
25688SOL    HW181911   9.175   4.834   9.690
25688SOL    HW281912   9.103   4.879   9.830
25689SOL     OW81913   8.061   5.089  10.036
25689SOL    HW181914   8.012   5.002  10.045
25689SOL    HW281915   8.038   5.132   9.949
25690SOL     OW81916   8.257   3.728   9.812
25690SOL    HW181917   8.297   3.819   9.803
25690SOL    HW281918   8.157   3.736   9.818
25691SOL     OW81919   8.973   4.723   9.500
25691SOL    HW181920   8.910   4.647   9.513
25691SOL    HW281921   9.021   4.741   9.586
25692SOL     OW81922   8.046   4.453   9.580
25692SOL    HW181923   8.070   4.522   9.512
25692SOL    HW281924   7.968   4.486   9.634
25693SOL     OW81925   9.024   5.386   9.617
25693SOL    HW181926   9.113   5.432   9.620
25693SOL    HW281927   9.003   5.362   9.522
25694SOL     OW81928   8.489   4.425   9.739
25694SOL    HW181929   8.515   4.421   9.835
25694SOL    HW281930   8.404   4.374   9.725
25695SOL     OW81931   7.524   4.535  10.099
25695SOL    HW181932   7.623   4.523  10.108
25695SOL    HW281933   7.500   4.630  10.120
25696SOL     OW81934   8.313   4.072   9.505
25696SOL    HW181935   8.372   4.135   9.456
25696SOL    HW281936   8.332   3.978   9.476
25697SOL     OW81937   8.810   4.868   9.855
25697SOL    HW181938   8.893   4.839   9.807
25697SOL    HW281939   8.761   4.935   9.799
25698SOL     OW81940   8.456   5.180   9.787
25698SOL    HW181941   8.410   5.252   9.735
25698SOL    HW281942   8.452   5.200   9.885
25699SOL     OW81943   7.799   5.525  10.163
25699SOL    HW181944   7.849   5.439  10.169
25699SOL    HW281945   7.864   5.602  10.160
25700SOL     OW81946   7.769   4.667   9.552
25700SOL    HW181947   7.851   4.706   9.510
25700SOL    HW281948   7.742   4.585   9.503
25701SOL     OW81949   9.080   5.101   9.391
25701SOL    HW181950   9.048   5.195   9.381
25701SOL    HW281951   9.004   5.038   9.379
25702SOL     OW81952   7.912   5.467   9.633
25702SOL    HW181953   7.945   5.506   9.719
25702SOL    HW281954   7.988   5.460   9.568
25703SOL     OW81955   7.830   4.424   9.790
25703SOL    HW181956   7.875   4.334   9.787
25703SOL    HW281957   7.736   4.413   9.823
25704SOL     OW81958   8.062   3.846   9.427
25704SOL    HW181959   8.160   3.824   9.434
25704SOL    HW281960   8.031   3.829   9.334
25705SOL     OW81961   7.987   3.788   9.822
25705SOL    HW181962   7.906   3.789   9.880
25705SOL    HW281963   7.990   3.871   9.767
25706SOL     OW81964   8.882   4.912   9.351
25706SOL    HW181965   8.914   4.836   9.408
25706SOL    HW281966   8.790   4.939   9.381
25707SOL     OW81967   7.745   3.759   9.481
25707SOL    HW181968   7.794   3.843   9.460
25707SOL    HW281969   7.807   3.694   9.526
25708SOL     OW81970   8.383   3.960   9.790
25708SOL    HW181971   8.335   4.001   9.712
25708SOL    HW281972   8.482   3.958   9.771
25709SOL     OW81973   7.907   4.876  10.051
25709SOL    HW181974   7.836   4.849  10.116
25709SOL    HW281975   7.881   4.848   9.958
25710SOL     OW81976   8.719   5.521   9.901
25710SOL    HW181977   8.763   5.585   9.837
25710SOL    HW281978   8.669   5.573   9.971
25711SOL     OW81979   8.480   4.273   9.326
25711SOL    HW181980   8.439   4.355   9.287
25711SOL    HW281981   8.544   4.299   9.399
25712SOL     OW81982   8.314   4.178   9.952
25712SOL    HW181983   8.282   4.250   9.890
25712SOL    HW281984   8.338   4.097   9.899
25713SOL     OW81985   9.305   4.557   9.687
25713SOL    HW181986   9.347   4.493   9.751
25713SOL    HW281987   9.267   4.506   9.609
25714SOL     OW81988   7.936   5.109   9.484
25714SOL    HW181989   7.849   5.094   9.531
25714SOL    HW281990   7.919   5.135   9.389
25715SOL     OW81991   8.838   4.299   9.388
25715SOL    HW181992   8.784   4.278   9.469
25715SOL    HW281993   8.929   4.258   9.397
25716SOL     OW81994   7.975   3.980   9.638
25716SOL    HW181995   8.002   3.921   9.563
25716SOL    HW281996   7.975   4.075   9.607
25717SOL     OW81997   8.153   4.774   9.678
25717SOL    HW181998   8.139   4.781   9.777
25717SOL    HW281999   8.237   4.723   9.660
25718SOL     OW82000   7.815   4.824   9.811
25718SOL    HW182001   7.808   4.907   9.755
25718SOL    HW282002   7.819   4.744   9.751
25719SOL     OW82003   8.700   5.072   9.698
25719SOL    HW182004   8.750   5.149   9.738
25719SOL    HW282005   8.605   5.074   9.730
25720SOL     OW82006   9.030   4.363   9.782
25720SOL    HW182007   8.999   4.424   9.855
25720SOL    HW282008   9.080   4.415   9.713
25721SOL     OW82009   8.657   4.249   9.585
25721SOL    HW182010   8.670   4.165   9.639
25721SOL    HW282011   8.628   4.323   9.645
25722SOL     OW82012   7.755   3.787   9.928
25722SOL    HW182013   7.744   3.881   9.961
25722SOL    HW282014   7.750   3.724  10.005
25723SOL     OW82015   9.070   4.091   9.684
25723SOL    HW182016   9.072   4.015   9.748
25723SOL    HW282017   9.022   4.168   9.724
25724SOL     OW82018   8.988   3.998   9.435
25724SOL    HW182019   8.927   3.923   9.458
25724SOL    HW282020   9.010   4.050   9.518
25725SOL     OW82021   8.751   4.562   9.352
25725SOL    HW182022   8.785   4.469   9.367
25725SOL    HW282023   8.769   4.589   9.257
25726SOL     OW82024   7.456   5.050   9.510
25726SOL    HW182025   7.363   5.071   9.479
25726SOL    HW282026   7.466   4.951   9.523
25727SOL     OW82027   8.263   4.296   9.635
25727SOL    HW182028   8.270   4.207   9.589
25727SOL    HW282029   8.169   4.330   9.627
25728SOL     OW82030   7.921   4.224   9.501
25728SOL    HW182031   7.982   4.304   9.505
25728SOL    HW282032   7.826   4.255   9.508
25729SOL     OW82033   8.750   4.579   9.619
25729SOL    HW182034   8.664   4.548   9.661
25729SOL    HW282035   8.746   4.565   9.520
25730SOL     OW82036   9.174   3.859   9.833
25730SOL    HW182037   9.247   3.842   9.766
25730SOL    HW282038   9.143   3.772   9.871
25731SOL     OW82039   8.836   5.297   9.787
25731SOL    HW182040   8.903   5.309   9.713
25731SOL    HW282041   8.796   5.386   9.810
25732SOL     OW82042   8.120   5.340   9.464
25732SOL    HW182043   8.129   5.350   9.365
25732SOL    HW282044   8.080   5.251   9.485
25733SOL     OW82045   8.642   5.336   9.341
25733SOL    HW182046   8.648   5.243   9.378
25733SOL    HW282047   8.583   5.336   9.261
25734SOL     OW82048   8.952   5.331   9.354
25734SOL    HW182049   8.860   5.368   9.361
25734SOL    HW282050   8.990   5.351   9.264
25735SOL     OW82051   8.038   5.211   9.801
25735SOL    HW182052   8.080   5.153   9.731
25735SOL    HW282053   7.994   5.290   9.757
25736SOL     OW82054   7.703   5.072   9.600
25736SOL    HW182055   7.607   5.073   9.573
25736SOL    HW282056   7.715   5.125   9.684
25737SOL     OW82057   7.523   4.069   9.343
25737SOL    HW182058   7.431   4.041   9.314
25737SOL    HW282059   7.554   4.146   9.287
25738SOL     OW82060   7.520   3.890   9.628
25738SOL    HW182061   7.503   3.973   9.574
25738SOL    HW282062   7.610   3.853   9.606
25739SOL     OW82063   8.631   5.059   9.429
25739SOL    HW182064   8.532   5.048   9.431
25739SOL    HW282065   8.665   5.074   9.522
25740SOL     OW82066   8.673   4.049   9.759
25740SOL    HW182067   8.738   3.975   9.748
25740SOL    HW282068   8.693   4.099   9.843
25741SOL     OW82069   8.042   4.469   9.962
25741SOL    HW182070   8.092   4.554   9.943
25741SOL    HW282071   7.954   4.471   9.914
25742SOL     OW82072   8.307   5.098   9.326
25742SOL    HW182073   8.261   5.113   9.414
25742SOL    HW282074   8.351   5.183   9.296
25743SOL     OW82075   8.531   4.708   9.397
25743SOL    HW182076   8.508   4.761   9.315
25743SOL    HW282077   8.612   4.652   9.378
25744SOL     OW82078   7.527   4.964   9.963
25744SOL    HW182079   7.526   4.917  10.051
25744SOL    HW282080   7.609   4.936   9.912
25745SOL     OW82081   7.876   4.148   9.830
25745SOL    HW182082   7.906   4.076   9.768
25745SOL    HW282083   7.837   4.108   9.913
25746SOL     OW82084   8.218   5.054   9.611
25746SOL    HW182085   8.172   4.967   9.628
25746SOL    HW282086   8.309   5.051   9.652
25747SOL     OW82087   8.800   3.776   9.478
25747SOL    HW182088   8.835   3.735   9.394
25747SOL    HW282089   8.710   3.738   9.498
25748SOL     OW82090   7.487   4.801   9.610
25748SOL    HW182091   7.586   4.790   9.601
25748SOL    HW282092   7.447   4.715   9.642
25749SOL     OW82093   8.323   5.370   9.647
25749SOL    HW182094   8.246   5.335   9.593
25749SOL    HW282095   8.291   5.441   9.709
25750SOL     OW82096   7.678   6.214   0.113
25750SOL    HW182097   7.585   6.212   0.150
25750SOL    HW282098   7.679   6.175   0.021
25751SOL     OW82099   7.467   5.954   0.647
25751SOL    HW182100   7.385   5.997   0.686
25751SOL    HW282101   7.439   5.881   0.584
25752SOL     OW82102   8.017   6.861   1.165
25752SOL    HW182103   7.924   6.854   1.128
25752SOL    HW282104   8.028   6.950   1.209
25753SOL     OW82105   9.003   7.097   0.703
25753SOL    HW182106   8.946   7.081   0.784
25753SOL    HW282107   8.944   7.107   0.623
25754SOL     OW82108   8.583   6.289   0.717
25754SOL    HW182109   8.640   6.367   0.692
25754SOL    HW282110   8.523   6.315   0.793
25755SOL     OW82111   9.203   6.193   0.231
25755SOL    HW182112   9.191   6.180   0.132
25755SOL    HW282113   9.173   6.112   0.280
25756SOL     OW82114   8.216   6.730   1.023
25756SOL    HW182115   8.138   6.747   1.083
25756SOL    HW282116   8.250   6.817   0.987
25757SOL     OW82117   8.298   6.384   1.823
25757SOL    HW182118   8.294   6.460   1.888
25757SOL    HW282119   8.320   6.420   1.732
25758SOL     OW82120   8.133   6.598   0.665
25758SOL    HW182121   8.202   6.582   0.735
25758SOL    HW282122   8.060   6.655   0.703
25759SOL     OW82123   8.134   6.747   1.803
25759SOL    HW182124   8.194   6.826   1.817
25759SOL    HW282125   8.048   6.778   1.762
25760SOL     OW82126   7.783   7.021   1.061
25760SOL    HW182127   7.705   6.990   1.008
25760SOL    HW282128   7.841   7.079   1.004
25761SOL     OW82129   8.908   7.091   1.339
25761SOL    HW182130   8.932   7.185   1.365
25761SOL    HW282131   8.892   7.037   1.421
25762SOL     OW82132   7.886   5.978   1.499
25762SOL    HW182133   7.968   5.922   1.508
25762SOL    HW282134   7.805   5.920   1.503
25763SOL     OW82135   9.051   6.033   0.737
25763SOL    HW182136   8.977   6.079   0.687
25763SOL    HW282137   9.102   6.101   0.790
25764SOL     OW82138   7.679   7.299   0.483
25764SOL    HW182139   7.713   7.376   0.537
25764SOL    HW282140   7.723   7.299   0.393
25765SOL     OW82141   8.575   6.927   1.690
25765SOL    HW182142   8.622   6.927   1.778
25765SOL    HW282143   8.527   6.840   1.679
25766SOL     OW82144   7.678   7.020   0.538
25766SOL    HW182145   7.652   7.116   0.538
25766SOL    HW282146   7.607   6.966   0.583
25767SOL     OW82147   8.068   7.372   1.439
25767SOL    HW182148   7.976   7.355   1.474
25767SOL    HW282149   8.096   7.464   1.465
25768SOL     OW82150   8.054   6.550   0.123
25768SOL    HW182151   8.061   6.634   0.069
25768SOL    HW282152   8.100   6.563   0.211
25769SOL     OW82153   7.570   6.229   0.563
25769SOL    HW182154   7.525   6.141   0.580
25769SOL    HW282155   7.569   6.283   0.647
25770SOL     OW82156   9.290   7.353   0.359
25770SOL    HW182157   9.344   7.324   0.439
25770SOL    HW282158   9.320   7.443   0.330
25771SOL     OW82159   7.475   7.182   0.117
25771SOL    HW182160   7.456   7.086   0.138
25771SOL    HW282161   7.442   7.240   0.192
25772SOL     OW82162   9.137   6.508   0.612
25772SOL    HW182163   9.232   6.479   0.620
25772SOL    HW282164   9.129   6.573   0.537
25773SOL     OW82165   9.089   6.694   0.432
25773SOL    HW182166   9.175   6.696   0.380
25773SOL    HW282167   9.103   6.741   0.520
25774SOL     OW82168   7.561   6.323   1.597
25774SOL    HW182169   7.649   6.310   1.642
25774SOL    HW282170   7.548   6.420   1.575
25775SOL     OW82171   8.061   6.951   0.726
25775SOL    HW182172   8.012   6.864   0.735
25775SOL    HW282173   8.038   6.994   0.639
25776SOL     OW82174   8.741   6.814   1.423
25776SOL    HW182175   8.778   6.741   1.365
25776SOL    HW282176   8.793   6.819   1.508
25777SOL     OW82177   8.257   5.590   0.502
25777SOL    HW182178   8.297   5.681   0.493
25777SOL    HW282179   8.157   5.598   0.508
25778SOL     OW82180   7.645   6.562   1.264
25778SOL    HW182181   7.734   6.517   1.250
25778SOL    HW282182   7.572   6.497   1.245
25779SOL     OW82183   8.973   6.585   0.190
25779SOL    HW182184   8.910   6.509   0.203
25779SOL    HW282185   9.021   6.603   0.276
25780SOL     OW82186   8.635   7.378   1.616
25780SOL    HW182187   8.659   7.438   1.540
25780SOL    HW282188   8.642   7.283   1.586
25781SOL     OW82189   7.765   5.837   1.801
25781SOL    HW182190   7.836   5.908   1.807
25781SOL    HW282191   7.677   5.876   1.829
25782SOL     OW82192   8.914   7.003   0.953
25782SOL    HW182193   8.855   7.009   1.033
25782SOL    HW282194   8.899   6.915   0.907
25783SOL     OW82195   9.115   7.300   0.572
25783SOL    HW182196   9.074   7.277   0.484
25783SOL    HW282197   9.097   7.226   0.637
25784SOL     OW82198   8.046   6.315   0.270
25784SOL    HW182199   8.070   6.384   0.202
25784SOL    HW282200   7.968   6.348   0.324
25785SOL     OW82201   8.729   5.931   0.944
25785SOL    HW182202   8.643   5.881   0.931
25785SOL    HW282203   8.791   5.877   1.000
25786SOL     OW82204   9.024   7.248   0.307
25786SOL    HW182205   9.113   7.294   0.310
25786SOL    HW282206   9.003   7.224   0.212
25787SOL     OW82207   8.255   6.191   1.465
25787SOL    HW182208   8.208   6.188   1.554
25787SOL    HW282209   8.204   6.136   1.399
25788SOL     OW82210   8.842   6.055   1.674
25788SOL    HW182211   8.822   6.098   1.762
25788SOL    HW282212   8.920   5.993   1.683
25789SOL     OW82213   8.421   6.476   1.572
25789SOL    HW182214   8.467   6.392   1.543
25789SOL    HW282215   8.365   6.510   1.497
25790SOL     OW82216   8.439   5.996   1.242
25790SOL    HW182217   8.362   6.030   1.296
25790SOL    HW282218   8.405   5.945   1.163
25791SOL     OW82219   8.489   6.287   0.429
25791SOL    HW182220   8.515   6.283   0.525
25791SOL    HW282221   8.404   6.236   0.415
25792SOL     OW82222   7.578   7.407   1.571
25792SOL    HW182223   7.568   7.392   1.670
25792SOL    HW282224   7.492   7.443   1.535
25793SOL     OW82225   8.313   5.934   0.195
25793SOL    HW182226   8.372   5.997   0.146
25793SOL    HW282227   8.332   5.840   0.166
25794SOL     OW82228   9.167   6.171   1.831
25794SOL    HW182229   9.141   6.260   1.795
25794SOL    HW282230   9.165   6.103   1.758
25795SOL     OW82231   8.810   6.730   0.545
25795SOL    HW182232   8.893   6.701   0.497
25795SOL    HW282233   8.761   6.797   0.489
25796SOL     OW82234   7.998   5.782   0.885
25796SOL    HW182235   7.993   5.777   0.985
25796SOL    HW282236   8.000   5.878   0.856
25797SOL     OW82237   7.799   7.387   0.853
25797SOL    HW182238   7.849   7.301   0.859
25797SOL    HW282239   7.864   7.464   0.850
25798SOL     OW82240   9.243   6.652   0.873
25798SOL    HW182241   9.181   6.637   0.797
25798SOL    HW282242   9.191   6.663   0.958
25799SOL     OW82243   8.675   7.136   1.506
25799SOL    HW182244   8.681   7.059   1.570
25799SOL    HW282245   8.623   7.110   1.426
25800SOL     OW82246   7.769   6.529   0.242
25800SOL    HW182247   7.851   6.568   0.200
25800SOL    HW282248   7.742   6.447   0.193
25801SOL     OW82249   8.906   6.321   0.728
25801SOL    HW182250   8.901   6.256   0.803
25801SOL    HW282251   8.986   6.380   0.741
25802SOL     OW82252   7.909   6.852   1.727
25802SOL    HW182253   7.859   6.853   1.641
25802SOL    HW282254   7.846   6.834   1.803
25803SOL     OW82255   7.650   5.871   1.498
25803SOL    HW182256   7.570   5.931   1.485
25803SOL    HW282257   7.640   5.822   1.584
25804SOL     OW82258   9.080   6.963   0.081
25804SOL    HW182259   9.048   7.057   0.071
25804SOL    HW282260   9.004   6.900   0.069
25805SOL     OW82261   7.912   7.329   0.323
25805SOL    HW182262   7.945   7.368   0.409
25805SOL    HW282263   7.988   7.322   0.258
25806SOL     OW82264   8.848   5.693   0.426
25806SOL    HW182265   8.824   5.656   0.336
25806SOL    HW282266   8.947   5.709   0.430
25807SOL     OW82267   7.697   7.371   1.241
25807SOL    HW182268   7.754   7.306   1.291
25807SOL    HW282269   7.681   7.338   1.148
25808SOL     OW82270   8.388   7.284   0.904
25808SOL    HW182271   8.468   7.227   0.925
25808SOL    HW282272   8.339   7.244   0.827
25809SOL     OW82273   7.830   6.286   0.480
25809SOL    HW182274   7.875   6.196   0.477
25809SOL    HW282275   7.736   6.275   0.513
25810SOL     OW82276   8.995   5.808   1.729
25810SOL    HW182277   8.990   5.845   1.821
25810SOL    HW282278   8.923   5.739   1.717
25811SOL     OW82279   8.062   5.708   0.117
25811SOL    HW182280   8.160   5.686   0.124
25811SOL    HW282281   8.031   5.691   0.024
25812SOL     OW82282   8.229   5.850   1.749
25812SOL    HW182283   8.296   5.789   1.792
25812SOL    HW282284   8.156   5.869   1.814
25813SOL     OW82285   8.336   7.100   1.195
25813SOL    HW182286   8.313   7.075   1.101
25813SOL    HW282287   8.397   7.031   1.234
25814SOL     OW82288   8.799   6.176   1.433
25814SOL    HW182289   8.827   6.133   1.518
25814SOL    HW282290   8.824   6.272   1.434
25815SOL     OW82291   8.251   6.988   0.924
25815SOL    HW182292   8.341   7.002   0.882
25815SOL    HW282293   8.180   6.990   0.853
25816SOL     OW82294   8.370   6.089   0.899
25816SOL    HW182295   8.345   6.080   0.803
25816SOL    HW282296   8.418   6.007   0.930
25817SOL     OW82297   7.987   5.650   0.512
25817SOL    HW182298   7.906   5.651   0.570
25817SOL    HW282299   7.990   5.733   0.457
25818SOL     OW82300   8.882   6.774   0.041
25818SOL    HW182301   8.914   6.698   0.098
25818SOL    HW282302   8.790   6.801   0.071
25819SOL     OW82303   8.383   5.822   0.480
25819SOL    HW182304   8.335   5.863   0.402
25819SOL    HW282305   8.482   5.820   0.461
25820SOL     OW82306   8.524   6.269   1.464
25820SOL    HW182307   8.444   6.208   1.467
25820SOL    HW282308   8.605   6.216   1.440
25821SOL     OW82309   7.907   6.738   0.741
25821SOL    HW182310   7.836   6.711   0.806
25821SOL    HW282311   7.881   6.710   0.648
25822SOL     OW82312   8.480   6.135   0.016
25822SOL    HW182313   8.439   6.217  -0.023
25822SOL    HW282314   8.544   6.161   0.089
25823SOL     OW82315   7.526   6.142   1.386
25823SOL    HW182316   7.618   6.141   1.345
25823SOL    HW282317   7.520   6.216   1.453
25824SOL     OW82318   8.009   5.808   1.147
25824SOL    HW182319   8.047   5.724   1.184
25824SOL    HW282320   7.921   5.827   1.191
25825SOL     OW82321   8.314   6.040   0.642
25825SOL    HW182322   8.282   6.112   0.580
25825SOL    HW282323   8.338   5.959   0.589
25826SOL     OW82324   8.465   5.625   0.753
25826SOL    HW182325   8.393   5.630   0.684
25826SOL    HW282326   8.441   5.556   0.822
25827SOL     OW82327   8.877   6.759   0.867
25827SOL    HW182328   8.822   6.675   0.860
25827SOL    HW282329   8.903   6.788   0.775
25828SOL     OW82330   8.914   6.176   0.992
25828SOL    HW182331   8.884   6.081   0.999
25828SOL    HW282332   8.987   6.192   1.058
25829SOL     OW82333   9.305   6.419   0.377
25829SOL    HW182334   9.347   6.355   0.441
25829SOL    HW282335   9.267   6.368   0.299
25830SOL     OW82336   7.936   6.971   0.174
25830SOL    HW182337   7.849   6.956   0.221
25830SOL    HW282338   7.919   6.997   0.079
25831SOL     OW82339   9.112   6.866   0.657
25831SOL    HW182340   9.211   6.874   0.671
25831SOL    HW282341   9.067   6.950   0.688
25832SOL     OW82342   8.838   6.161   0.078
25832SOL    HW182343   8.784   6.140   0.159
25832SOL    HW282344   8.929   6.120   0.087
25833SOL     OW82345   7.975   5.842   0.328
25833SOL    HW182346   8.002   5.783   0.253
25833SOL    HW282347   7.975   5.937   0.297
25834SOL     OW82348   9.202   6.809   1.588
25834SOL    HW182349   9.293   6.770   1.575
25834SOL    HW282350   9.210   6.905   1.612
25835SOL     OW82351   8.512   6.933   1.340
25835SOL    HW182352   8.432   6.910   1.395
25835SOL    HW282353   8.595   6.907   1.389
25836SOL     OW82354   9.040   7.215   1.625
25836SOL    HW182355   9.067   7.249   1.535
25836SOL    HW282356   9.119   7.177   1.671
25837SOL     OW82357   8.559   6.781   1.100
25837SOL    HW182358   8.519   6.825   1.181
25837SOL    HW282359   8.518   6.818   1.017
25838SOL     OW82360   9.086   6.685   1.079
25838SOL    HW182361   9.091   6.766   1.138
25838SOL    HW282362   9.000   6.687   1.028
25839SOL     OW82363   8.363   5.675   1.402
25839SOL    HW182364   8.388   5.655   1.307
25839SOL    HW282365   8.435   5.731   1.444
25840SOL     OW82366   8.153   6.636   0.368
25840SOL    HW182367   8.139   6.643   0.467
25840SOL    HW282368   8.237   6.585   0.350
25841SOL     OW82369   7.858   6.399   1.251
25841SOL    HW182370   7.944   6.411   1.301
25841SOL    HW282371   7.816   6.312   1.278
25842SOL     OW82372   8.722   5.972   1.262
25842SOL    HW182373   8.743   6.046   1.326
25842SOL    HW282374   8.633   5.989   1.219
25843SOL     OW82375   7.512   7.150   1.331
25843SOL    HW182376   7.466   7.232   1.297
25843SOL    HW282377   7.610   7.169   1.340
25844SOL     OW82378   7.815   6.686   0.501
25844SOL    HW182379   7.808   6.769   0.445
25844SOL    HW282380   7.819   6.606   0.441
25845SOL     OW82381   8.014   6.123   0.865
25845SOL    HW182382   8.026   6.189   0.791
25845SOL    HW282383   8.060   6.157   0.948
25846SOL     OW82384   8.700   6.934   0.388
25846SOL    HW182385   8.750   7.011   0.428
25846SOL    HW282386   8.605   6.936   0.420
25847SOL     OW82387   8.720   7.031   1.142
25847SOL    HW182388   8.767   7.044   1.229
25847SOL    HW282389   8.654   6.957   1.151
25848SOL     OW82390   9.030   6.225   0.472
25848SOL    HW182391   8.999   6.286   0.545
25848SOL    HW282392   9.080   6.277   0.403
25849SOL     OW82393   7.802   7.096   1.329
25849SOL    HW182394   7.781   7.052   1.242
25849SOL    HW282395   7.899   7.122   1.332
25850SOL     OW82396   7.850   6.337   1.598
25850SOL    HW182397   7.918   6.392   1.551
25850SOL    HW282398   7.890   6.249   1.625
25851SOL     OW82399   9.035   6.365   1.670
25851SOL    HW182400   8.943   6.403   1.665
25851SOL    HW282401   9.095   6.412   1.605
25852SOL     OW82402   8.461   5.691   1.770
25852SOL    HW182403   8.467   5.776   1.718
25852SOL    HW282404   8.493   5.615   1.713
25853SOL     OW82405   8.021   6.456   1.029
25853SOL    HW182406   8.065   6.545   1.020
25853SOL    HW282407   7.958   6.456   1.106
25854SOL     OW82408   8.808   6.448   1.045
25854SOL    HW182409   8.733   6.448   0.979
25854SOL    HW282410   8.845   6.356   1.054
25855SOL     OW82411   7.755   5.799   1.231
25855SOL    HW182412   7.732   5.836   1.321
25855SOL    HW282413   7.725   5.704   1.225
25856SOL     OW82414   7.485   6.896   1.282
25856SOL    HW182415   7.538   6.847   1.350
25856SOL    HW282416   7.507   6.994   1.287
25857SOL     OW82417   8.180   6.220   1.064
25857SOL    HW182418   8.239   6.194   0.988
25857SOL    HW282419   8.152   6.316   1.053
25858SOL     OW82420   9.176   6.521   1.854
25858SOL    HW182421   9.130   6.514   1.765
25858SOL    HW282422   9.114   6.565   1.920
25859SOL     OW82423   7.755   5.649   0.618
25859SOL    HW182424   7.744   5.743   0.651
25859SOL    HW282425   7.750   5.586   0.695
25860SOL     OW82426   9.070   5.953   0.374
25860SOL    HW182427   9.072   5.877   0.438
25860SOL    HW282428   9.022   6.030   0.414
25861SOL     OW82429   8.471   6.352   0.966
25861SOL    HW182430   8.486   6.373   1.062
25861SOL    HW282431   8.441   6.257   0.957
25862SOL     OW82432   8.428   7.159   1.700
25862SOL    HW182433   8.408   7.203   1.612
25862SOL    HW282434   8.467   7.068   1.684
25863SOL     OW82435   9.307   7.104   1.605
25863SOL    HW182436   9.321   7.131   1.510
25863SOL    HW282437   9.390   7.126   1.658
25864SOL     OW82438   7.798   6.484   1.804
25864SOL    HW182439   7.874   6.528   1.852
25864SOL    HW282440   7.833   6.437   1.722
25865SOL     OW82441   8.988   5.860   0.125
25865SOL    HW182442   8.927   5.785   0.148
25865SOL    HW282443   9.010   5.912   0.208
25866SOL     OW82444   8.751   6.424   0.042
25866SOL    HW182445   8.785   6.331   0.057
25866SOL    HW282446   8.769   6.451  -0.053
25867SOL     OW82447   8.516   6.919   0.849
25867SOL    HW182448   8.523   6.835   0.794
25867SOL    HW282449   8.578   6.988   0.813
25868SOL     OW82450   7.767   6.396   0.949
25868SOL    HW182451   7.860   6.432   0.954
25868SOL    HW282452   7.761   6.311   1.001
25869SOL     OW82453   7.787   6.095   1.006
25869SOL    HW182454   7.735   6.012   0.989
25869SOL    HW282455   7.864   6.100   0.942
25870SOL     OW82456   8.586   5.966   1.678
25870SOL    HW182457   8.541   6.029   1.742
25870SOL    HW282458   8.679   5.997   1.661
25871SOL     OW82459   8.608   5.793   1.477
25871SOL    HW182460   8.608   5.857   1.554
25871SOL    HW282461   8.636   5.841   1.394
25872SOL     OW82462   7.456   6.912   0.200
25872SOL    HW182463   7.363   6.933   0.169
25872SOL    HW282464   7.466   6.813   0.213
25873SOL     OW82465   7.536   7.387   0.927
25873SOL    HW182466   7.494   7.301   0.900
25873SOL    HW282467   7.630   7.390   0.893
25874SOL     OW82468   7.952   7.154   0.910
25874SOL    HW182469   8.018   7.228   0.919
25874SOL    HW282470   7.996   7.075   0.868
25875SOL     OW82471   8.450   6.382   1.238
25875SOL    HW182472   8.491   6.350   1.324
25875SOL    HW282473   8.354   6.355   1.235
25876SOL     OW82474   7.488   6.130   1.114
25876SOL    HW182475   7.573   6.097   1.073
25876SOL    HW282476   7.501   6.145   1.212
25877SOL     OW82477   7.637   6.106   1.722
25877SOL    HW182478   7.696   6.066   1.652
25877SOL    HW282479   7.579   6.177   1.681
25878SOL     OW82480   8.817   6.536   1.660
25878SOL    HW182481   8.856   6.625   1.680
25878SOL    HW282482   8.827   6.516   1.563
25879SOL     OW82483   8.263   6.158   0.325
25879SOL    HW182484   8.270   6.069   0.279
25879SOL    HW282485   8.169   6.192   0.317
25880SOL     OW82486   9.105   6.190   1.206
25880SOL    HW182487   9.067   6.121   1.268
25880SOL    HW282488   9.187   6.154   1.162
25881SOL     OW82489   7.700   7.150   1.744
25881SOL    HW182490   7.670   7.207   1.820
25881SOL    HW282491   7.693   7.053   1.770
25882SOL     OW82492   8.119   6.050   1.269
25882SOL    HW182493   8.085   5.961   1.239
25882SOL    HW282494   8.145   6.104   1.189
25883SOL     OW82495   8.378   7.264   1.465
25883SOL    HW182496   8.354   7.246   1.370
25883SOL    HW282497   8.408   7.358   1.475
25884SOL     OW82498   7.921   6.086   0.191
25884SOL    HW182499   7.982   6.166   0.195
25884SOL    HW282500   7.826   6.117   0.198
25885SOL     OW82501   7.607   6.723   1.466
25885SOL    HW182502   7.629   6.662   1.542
25885SOL    HW282503   7.617   6.674   1.380
25886SOL     OW82504   8.795   6.645   1.234
25886SOL    HW182505   8.819   6.582   1.160
25886SOL    HW282506   8.705   6.685   1.216
25887SOL     OW82507   8.750   6.441   0.309
25887SOL    HW182508   8.664   6.410   0.351
25887SOL    HW282509   8.746   6.427   0.210
25888SOL     OW82510   9.207   7.333   1.154
25888SOL    HW182511   9.268   7.363   1.081
25888SOL    HW282512   9.169   7.244   1.132
25889SOL     OW82513   8.700   7.317   1.128
25889SOL    HW182514   8.784   7.322   1.074
25889SOL    HW282515   8.677   7.221   1.146
25890SOL     OW82516   8.136   7.248   1.716
25890SOL    HW182517   8.080   7.329   1.725
25890SOL    HW282518   8.188   7.252   1.630
25891SOL     OW82519   8.351   5.672   0.133
25891SOL    HW182520   8.402   5.673   0.047
25891SOL    HW282521   8.407   5.630   0.204
25892SOL     OW82522   9.174   5.721   0.523
25892SOL    HW182523   9.247   5.704   0.456
25892SOL    HW282524   9.143   5.634   0.561
25893SOL     OW82525   8.728   6.513   0.672
25893SOL    HW182526   8.788   6.432   0.674
25893SOL    HW282527   8.768   6.582   0.612
25894SOL     OW82528   8.278   6.859   1.422
25894SOL    HW182529   8.273   6.892   1.517
25894SOL    HW282530   8.192   6.878   1.376
25895SOL     OW82531   8.120   7.202   0.154
25895SOL    HW182532   8.129   7.212   0.055
25895SOL    HW282533   8.080   7.113   0.175
25896SOL     OW82534   9.098   7.306   1.394
25896SOL    HW182535   9.151   7.316   1.310
25896SOL    HW282536   9.071   7.396   1.428
25897SOL     OW82537   7.711   5.912   0.720
25897SOL    HW182538   7.632   5.963   0.686
25897SOL    HW282539   7.702   5.897   0.818
25898SOL     OW82540   8.642   7.198   0.031
25898SOL    HW182541   8.648   7.105   0.068
25898SOL    HW282542   8.583   7.198  -0.049
25899SOL     OW82543   8.270   6.588   1.372
25899SOL    HW182544   8.310   6.587   1.280
25899SOL    HW282545   8.280   6.680   1.412
25900SOL     OW82546   8.364   6.496   0.291
25900SOL    HW182547   8.427   6.534   0.223
25900SOL    HW282548   8.404   6.413   0.330
25901SOL     OW82549   8.952   7.193   0.044
25901SOL    HW182550   8.860   7.230   0.051
25901SOL    HW282551   8.990   7.213  -0.046
25902SOL     OW82552   7.820   6.874   1.490
25902SOL    HW182553   7.807   6.967   1.456
25902SOL    HW282554   7.736   6.822   1.477
25903SOL     OW82555   9.062   6.878   1.289
25903SOL    HW182556   9.122   6.881   1.369
25903SOL    HW282557   8.987   6.942   1.302
25904SOL     OW82558   8.487   6.684   0.696
25904SOL    HW182559   8.417   6.637   0.750
25904SOL    HW282560   8.546   6.616   0.653
25905SOL     OW82561   8.462   5.822   0.971
25905SOL    HW182562   8.454   5.786   0.878
25905SOL    HW282563   8.460   5.746   1.036
25906SOL     OW82564   8.038   7.073   0.491
25906SOL    HW182565   8.080   7.015   0.421
25906SOL    HW282566   7.994   7.152   0.447
25907SOL     OW82567   9.157   5.971   1.381
25907SOL    HW182568   9.230   6.040   1.385
25907SOL    HW282569   9.185   5.896   1.322
25908SOL     OW82570   7.703   6.934   0.290
25908SOL    HW182571   7.607   6.935   0.263
25908SOL    HW282572   7.715   6.987   0.374
25909SOL     OW82573   7.553   6.599   1.726
25909SOL    HW182574   7.476   6.566   1.780
25909SOL    HW282575   7.638   6.569   1.768
25910SOL     OW82576   8.120   5.789   1.489
25910SOL    HW182577   8.210   5.773   1.449
25910SOL    HW282578   8.128   5.794   1.588
25911SOL     OW82579   7.523   5.931   0.033
25911SOL    HW182580   7.431   5.903   0.004
25911SOL    HW282581   7.554   6.008  -0.023
25912SOL     OW82582   8.888   6.442   1.398
25912SOL    HW182583   8.831   6.494   1.335
25912SOL    HW282584   8.984   6.454   1.374
25913SOL     OW82585   7.520   5.752   0.318
25913SOL    HW182586   7.503   5.835   0.264
25913SOL    HW282587   7.610   5.715   0.296
25914SOL     OW82588   8.631   6.921   0.119
25914SOL    HW182589   8.532   6.910   0.121
25914SOL    HW282590   8.665   6.936   0.212
25915SOL     OW82591   8.061   6.428   1.431
25915SOL    HW182592   8.117   6.509   1.414
25915SOL    HW282593   8.120   6.348   1.434
25916SOL     OW82594   8.941   7.353   0.959
25916SOL    HW182595   8.974   7.417   0.890
25916SOL    HW282596   9.007   7.347   1.034
25917SOL     OW82597   8.164   6.151   1.708
25917SOL    HW182598   8.183   6.216   1.782
25917SOL    HW282599   8.224   6.071   1.717
25918SOL     OW82600   8.898   6.806   1.633
25918SOL    HW182601   8.889   6.796   1.732
25918SOL    HW282602   8.994   6.799   1.607
25919SOL     OW82603   7.838   7.327   1.560
25919SOL    HW182604   7.747   7.368   1.558
25919SOL    HW282605   7.831   7.233   1.592
25920SOL     OW82606   9.122   6.469   1.254
25920SOL    HW182607   9.095   6.380   1.217
25920SOL    HW282608   9.123   6.537   1.181
25921SOL     OW82609   8.673   5.911   0.449
25921SOL    HW182610   8.738   5.837   0.438
25921SOL    HW282611   8.693   5.961   0.533
25922SOL     OW82612   8.042   6.331   0.652
25922SOL    HW182613   8.092   6.416   0.633
25922SOL    HW282614   7.954   6.333   0.604
25923SOL     OW82615   9.225   5.928   1.642
25923SOL    HW182616   9.208   5.959   1.548
25923SOL    HW282617   9.141   5.891   1.680
25924SOL     OW82618   9.178   6.520   1.517
25924SOL    HW182619   9.216   6.611   1.532
25924SOL    HW282620   9.170   6.503   1.418
25925SOL     OW82621   8.307   6.960   0.016
25925SOL    HW182622   8.261   6.975   0.104
25925SOL    HW282623   8.351   7.045  -0.014
25926SOL     OW82624   8.109   7.376   0.953
25926SOL    HW182625   8.063   7.464   0.940
25926SOL    HW282626   8.208   7.388   0.946
25927SOL     OW82627   8.307   6.542   0.861
25927SOL    HW182628   8.361   6.473   0.909
25927SOL    HW282629   8.275   6.611   0.927
25928SOL     OW82630   8.531   6.570   0.087
25928SOL    HW182631   8.508   6.623   0.005
25928SOL    HW282632   8.612   6.514   0.068
25929SOL     OW82633   7.669   6.900   1.844
25929SOL    HW182634   7.604   6.827   1.823
25929SOL    HW282635   7.673   6.914   1.942
25930SOL     OW82636   8.120   6.977   1.624
25930SOL    HW182637   8.042   6.927   1.662
25930SOL    HW282638   8.117   7.072   1.655
25931SOL     OW82639   9.272   5.778   1.227
25931SOL    HW182640   9.268   5.688   1.271
25931SOL    HW282641   9.275   5.767   1.128
25932SOL     OW82642   7.876   6.010   0.520
25932SOL    HW182643   7.906   5.938   0.458
25932SOL    HW282644   7.837   5.970   0.603
25933SOL     OW82645   9.153   7.073   1.104
25933SOL    HW182646   9.060   7.048   1.077
25933SOL    HW282647   9.179   7.023   1.186
25934SOL     OW82648   7.765   6.133   1.280
25934SOL    HW182649   7.803   6.074   1.352
25934SOL    HW282650   7.805   6.107   1.192
25935SOL     OW82651   8.260   7.172   0.687
25935SOL    HW182652   8.292   7.182   0.593
25935SOL    HW282653   8.181   7.110   0.689
25936SOL     OW82654   8.872   5.800   1.112
25936SOL    HW182655   8.924   5.735   1.167
25936SOL    HW282656   8.823   5.863   1.173
25937SOL     OW82657   8.449   5.620   1.154
25937SOL    HW182658   8.386   5.548   1.123
25937SOL    HW282659   8.542   5.584   1.154
25938SOL     OW82660   8.218   6.916   0.301
25938SOL    HW182661   8.172   6.829   0.318
25938SOL    HW282662   8.309   6.913   0.342
25939SOL     OW82663   8.066   7.153   1.284
25939SOL    HW182664   8.061   7.235   1.341
25939SOL    HW282665   8.155   7.150   1.239
25940SOL     OW82666   8.800   5.638   0.168
25940SOL    HW182667   8.835   5.597   0.084
25940SOL    HW282668   8.710   5.600   0.188
25941SOL     OW82669   8.748   6.039   0.691
25941SOL    HW182670   8.689   6.119   0.695
25941SOL    HW282671   8.763   6.004   0.784
25942SOL     OW82672   7.487   6.663   0.300
25942SOL    HW182673   7.586   6.652   0.291
25942SOL    HW282674   7.447   6.577   0.332
25943SOL     OW82675   7.678   6.214   1.975
25943SOL    HW182676   7.585   6.212   2.012
25943SOL    HW282677   7.679   6.175   1.883
25944SOL     OW82678   7.673   5.861   2.858
25944SOL    HW182679   7.708   5.844   2.950
25944SOL    HW282680   7.585   5.816   2.846
25945SOL     OW82681   7.467   5.954   2.509
25945SOL    HW182682   7.385   5.997   2.548
25945SOL    HW282683   7.439   5.881   2.446
25946SOL     OW82684   8.017   6.861   3.027
25946SOL    HW182685   7.924   6.854   2.990
25946SOL    HW282686   8.028   6.950   3.071
25947SOL     OW82687   9.003   7.097   2.565
25947SOL    HW182688   8.946   7.081   2.646
25947SOL    HW282689   8.944   7.107   2.485
25948SOL     OW82690   8.583   6.289   2.579
25948SOL    HW182691   8.640   6.367   2.554
25948SOL    HW282692   8.523   6.315   2.655
25949SOL     OW82693   9.203   6.193   2.093
25949SOL    HW182694   9.191   6.180   1.994
25949SOL    HW282695   9.173   6.112   2.142
25950SOL     OW82696   8.216   6.730   2.885
25950SOL    HW182697   8.138   6.747   2.945
25950SOL    HW282698   8.250   6.817   2.849
25951SOL     OW82699   8.298   6.384   3.685
25951SOL    HW182700   8.294   6.460   3.750
25951SOL    HW282701   8.320   6.420   3.594
25952SOL     OW82702   8.133   6.598   2.527
25952SOL    HW182703   8.202   6.582   2.597
25952SOL    HW282704   8.060   6.655   2.565
25953SOL     OW82705   8.134   6.747   3.665
25953SOL    HW182706   8.194   6.826   3.679
25953SOL    HW282707   8.048   6.778   3.624
25954SOL     OW82708   8.908   7.091   3.201
25954SOL    HW182709   8.932   7.185   3.227
25954SOL    HW282710   8.892   7.037   3.283
25955SOL     OW82711   7.886   5.978   3.361
25955SOL    HW182712   7.968   5.922   3.370
25955SOL    HW282713   7.805   5.920   3.365
25956SOL     OW82714   9.051   6.033   2.599
25956SOL    HW182715   8.977   6.079   2.549
25956SOL    HW282716   9.102   6.101   2.652
25957SOL     OW82717   7.679   7.299   2.345
25957SOL    HW182718   7.713   7.376   2.399
25957SOL    HW282719   7.723   7.299   2.255
25958SOL     OW82720   8.575   6.927   3.552
25958SOL    HW182721   8.622   6.927   3.640
25958SOL    HW282722   8.527   6.840   3.541
25959SOL     OW82723   7.678   7.020   2.400
25959SOL    HW182724   7.652   7.116   2.400
25959SOL    HW282725   7.607   6.966   2.445
25960SOL     OW82726   8.068   7.372   3.301
25960SOL    HW182727   7.976   7.355   3.336
25960SOL    HW282728   8.096   7.464   3.327
25961SOL     OW82729   8.054   6.550   1.985
25961SOL    HW182730   8.061   6.634   1.931
25961SOL    HW282731   8.100   6.563   2.073
25962SOL     OW82732   9.042   5.700   3.342
25962SOL    HW182733   9.024   5.767   3.270
25962SOL    HW282734   9.039   5.746   3.431
25963SOL     OW82735   7.570   6.229   2.425
25963SOL    HW182736   7.525   6.141   2.442
25963SOL    HW282737   7.569   6.283   2.509
25964SOL     OW82738   7.475   7.182   1.979
25964SOL    HW182739   7.456   7.086   2.000
25964SOL    HW282740   7.442   7.240   2.054
25965SOL     OW82741   9.137   6.508   2.474
25965SOL    HW182742   9.232   6.479   2.482
25965SOL    HW282743   9.129   6.573   2.399
25966SOL     OW82744   7.561   6.323   3.459
25966SOL    HW182745   7.649   6.310   3.504
25966SOL    HW282746   7.548   6.420   3.437
25967SOL     OW82747   8.061   6.951   2.588
25967SOL    HW182748   8.012   6.864   2.597
25967SOL    HW282749   8.038   6.994   2.501
25968SOL     OW82750   8.741   6.814   3.285
25968SOL    HW182751   8.778   6.741   3.227
25968SOL    HW282752   8.793   6.819   3.370
25969SOL     OW82753   8.257   5.590   2.364
25969SOL    HW182754   8.297   5.681   2.355
25969SOL    HW282755   8.157   5.598   2.370
25970SOL     OW82756   7.645   6.562   3.126
25970SOL    HW182757   7.734   6.517   3.112
25970SOL    HW282758   7.572   6.497   3.107
25971SOL     OW82759   8.635   7.378   3.478
25971SOL    HW182760   8.659   7.438   3.402
25971SOL    HW282761   8.642   7.283   3.448
25972SOL     OW82762   7.765   5.837   3.663
25972SOL    HW182763   7.836   5.908   3.669
25972SOL    HW282764   7.677   5.876   3.691
25973SOL     OW82765   8.914   7.003   2.815
25973SOL    HW182766   8.855   7.009   2.895
25973SOL    HW282767   8.899   6.915   2.769
25974SOL     OW82768   9.115   7.300   2.434
25974SOL    HW182769   9.074   7.277   2.346
25974SOL    HW282770   9.097   7.226   2.499
25975SOL     OW82771   8.046   6.315   2.132
25975SOL    HW182772   8.070   6.384   2.064
25975SOL    HW282773   7.968   6.348   2.186
25976SOL     OW82774   8.729   5.931   2.806
25976SOL    HW182775   8.643   5.881   2.793
25976SOL    HW282776   8.791   5.877   2.862
25977SOL     OW82777   8.255   6.191   3.327
25977SOL    HW182778   8.208   6.188   3.416
25977SOL    HW282779   8.204   6.136   3.261
25978SOL     OW82780   8.842   6.055   3.536
25978SOL    HW182781   8.822   6.098   3.624
25978SOL    HW282782   8.920   5.993   3.545
25979SOL     OW82783   8.421   6.476   3.434
25979SOL    HW182784   8.467   6.392   3.405
25979SOL    HW282785   8.365   6.510   3.359
25980SOL     OW82786   8.439   5.996   3.104
25980SOL    HW182787   8.362   6.030   3.158
25980SOL    HW282788   8.405   5.945   3.025
25981SOL     OW82789   8.489   6.287   2.291
25981SOL    HW182790   8.515   6.283   2.387
25981SOL    HW282791   8.404   6.236   2.277
25982SOL     OW82792   7.524   6.397   2.651
25982SOL    HW182793   7.623   6.385   2.660
25982SOL    HW282794   7.500   6.492   2.672
25983SOL     OW82795   7.578   7.407   3.433
25983SOL    HW182796   7.568   7.392   3.532
25983SOL    HW282797   7.492   7.443   3.397
25984SOL     OW82798   8.313   5.934   2.057
25984SOL    HW182799   8.372   5.997   2.008
25984SOL    HW282800   8.332   5.840   2.028
25985SOL     OW82801   9.167   6.171   3.693
25985SOL    HW182802   9.141   6.260   3.657
25985SOL    HW282803   9.165   6.103   3.620
25986SOL     OW82804   8.810   6.730   2.407
25986SOL    HW182805   8.893   6.701   2.359
25986SOL    HW282806   8.761   6.797   2.351
25987SOL     OW82807   8.456   7.042   2.339
25987SOL    HW182808   8.410   7.114   2.287
25987SOL    HW282809   8.452   7.062   2.437
25988SOL     OW82810   9.243   6.652   2.735
25988SOL    HW182811   9.181   6.637   2.659
25988SOL    HW282812   9.191   6.663   2.820
25989SOL     OW82813   8.675   7.136   3.368
25989SOL    HW182814   8.681   7.059   3.432
25989SOL    HW282815   8.623   7.110   3.288
25990SOL     OW82816   7.769   6.529   2.104
25990SOL    HW182817   7.851   6.568   2.062
25990SOL    HW282818   7.742   6.447   2.055
25991SOL     OW82819   8.906   6.321   2.590
25991SOL    HW182820   8.901   6.256   2.665
25991SOL    HW282821   8.986   6.380   2.603
25992SOL     OW82822   7.909   6.852   3.589
25992SOL    HW182823   7.859   6.853   3.503
25992SOL    HW282824   7.846   6.834   3.665
25993SOL     OW82825   8.559   7.362   2.099
25993SOL    HW182826   8.499   7.300   2.149
25993SOL    HW282827   8.590   7.318   2.014
25994SOL     OW82828   7.650   5.871   3.360
25994SOL    HW182829   7.570   5.931   3.347
25994SOL    HW282830   7.640   5.822   3.446
25995SOL     OW82831   7.912   7.329   2.185
25995SOL    HW182832   7.945   7.368   2.271
25995SOL    HW282833   7.988   7.322   2.120
25996SOL     OW82834   8.848   5.693   2.288
25996SOL    HW182835   8.824   5.656   2.198
25996SOL    HW282836   8.947   5.709   2.292
25997SOL     OW82837   7.697   7.371   3.103
25997SOL    HW182838   7.754   7.306   3.153
25997SOL    HW282839   7.681   7.338   3.010
25998SOL     OW82840   8.388   7.284   2.766
25998SOL    HW182841   8.468   7.227   2.787
25998SOL    HW282842   8.339   7.244   2.689
25999SOL     OW82843   7.830   6.286   2.342
25999SOL    HW182844   7.875   6.196   2.339
25999SOL    HW282845   7.736   6.275   2.375
26000SOL     OW82846   8.995   5.808   3.591
26000SOL    HW182847   8.990   5.845   3.683
26000SOL    HW282848   8.923   5.739   3.579
26001SOL     OW82849   8.062   5.708   1.979
26001SOL    HW182850   8.160   5.686   1.986
26001SOL    HW282851   8.031   5.691   1.886
26002SOL     OW82852   8.229   5.850   3.611
26002SOL    HW182853   8.296   5.789   3.654
26002SOL    HW282854   8.156   5.869   3.676
26003SOL     OW82855   8.336   7.100   3.057
26003SOL    HW182856   8.313   7.075   2.963
26003SOL    HW282857   8.397   7.031   3.096
26004SOL     OW82858   8.799   6.176   3.295
26004SOL    HW182859   8.827   6.133   3.380
26004SOL    HW282860   8.824   6.272   3.296
26005SOL     OW82861   8.251   6.988   2.786
26005SOL    HW182862   8.341   7.002   2.744
26005SOL    HW282863   8.180   6.990   2.715
26006SOL     OW82864   8.370   6.089   2.761
26006SOL    HW182865   8.345   6.080   2.665
26006SOL    HW282866   8.418   6.007   2.792
26007SOL     OW82867   7.987   5.650   2.374
26007SOL    HW182868   7.906   5.651   2.432
26007SOL    HW282869   7.990   5.733   2.319
26008SOL     OW82870   8.882   6.774   1.903
26008SOL    HW182871   8.914   6.698   1.960
26008SOL    HW282872   8.790   6.801   1.933
26009SOL     OW82873   8.383   5.822   2.342
26009SOL    HW182874   8.335   5.863   2.264
26009SOL    HW282875   8.482   5.820   2.323
26010SOL     OW82876   8.524   6.269   3.326
26010SOL    HW182877   8.444   6.208   3.329
26010SOL    HW282878   8.605   6.216   3.302
26011SOL     OW82879   8.675   7.156   2.655
26011SOL    HW182880   8.696   7.230   2.590
26011SOL    HW282881   8.743   7.156   2.728
26012SOL     OW82882   7.907   6.738   2.603
26012SOL    HW182883   7.836   6.711   2.668
26012SOL    HW282884   7.881   6.710   2.510
26013SOL     OW82885   8.719   7.383   2.453
26013SOL    HW182886   8.763   7.447   2.389
26013SOL    HW282887   8.669   7.435   2.523
26014SOL     OW82888   8.480   6.135   1.878
26014SOL    HW182889   8.439   6.217   1.839
26014SOL    HW282890   8.544   6.161   1.951
26015SOL     OW82891   7.526   6.142   3.248
26015SOL    HW182892   7.618   6.141   3.207
26015SOL    HW282893   7.520   6.216   3.315
26016SOL     OW82894   8.009   5.808   3.009
26016SOL    HW182895   8.047   5.724   3.046
26016SOL    HW282896   7.921   5.827   3.053
26017SOL     OW82897   8.314   6.040   2.504
26017SOL    HW182898   8.282   6.112   2.442
26017SOL    HW282899   8.338   5.959   2.451
26018SOL     OW82900   8.465   5.625   2.615
26018SOL    HW182901   8.393   5.630   2.546
26018SOL    HW282902   8.441   5.556   2.684
26019SOL     OW82903   8.877   6.759   2.729
26019SOL    HW182904   8.822   6.675   2.722
26019SOL    HW282905   8.903   6.788   2.637
26020SOL     OW82906   8.914   6.176   2.854
26020SOL    HW182907   8.884   6.081   2.861
26020SOL    HW282908   8.987   6.192   2.920
26021SOL     OW82909   9.305   6.419   2.239
26021SOL    HW182910   9.347   6.355   2.303
26021SOL    HW282911   9.267   6.368   2.161
26022SOL     OW82912   7.936   6.971   2.036
26022SOL    HW182913   7.849   6.956   2.083
26022SOL    HW282914   7.919   6.997   1.941
26023SOL     OW82915   9.112   6.866   2.519
26023SOL    HW182916   9.211   6.874   2.533
26023SOL    HW282917   9.067   6.950   2.550
26024SOL     OW82918   8.838   6.161   1.940
26024SOL    HW182919   8.784   6.140   2.021
26024SOL    HW282920   8.929   6.120   1.949
26025SOL     OW82921   7.975   5.842   2.190
26025SOL    HW182922   8.002   5.783   2.115
26025SOL    HW282923   7.975   5.937   2.159
26026SOL     OW82924   9.202   6.809   3.450
26026SOL    HW182925   9.293   6.770   3.437
26026SOL    HW282926   9.210   6.905   3.474
26027SOL     OW82927   8.512   6.933   3.202
26027SOL    HW182928   8.432   6.910   3.257
26027SOL    HW282929   8.595   6.907   3.251
26028SOL     OW82930   9.040   7.215   3.487
26028SOL    HW182931   9.067   7.249   3.397
26028SOL    HW282932   9.119   7.177   3.533
26029SOL     OW82933   8.559   6.781   2.962
26029SOL    HW182934   8.519   6.825   3.043
26029SOL    HW282935   8.518   6.818   2.879
26030SOL     OW82936   9.086   6.685   2.941
26030SOL    HW182937   9.091   6.766   3.000
26030SOL    HW282938   9.000   6.687   2.890
26031SOL     OW82939   8.363   5.675   3.264
26031SOL    HW182940   8.388   5.655   3.169
26031SOL    HW282941   8.435   5.731   3.306
26032SOL     OW82942   8.428   6.702   3.581
26032SOL    HW182943   8.329   6.708   3.591
26032SOL    HW282944   8.451   6.622   3.525
26033SOL     OW82945   8.153   6.636   2.230
26033SOL    HW182946   8.139   6.643   2.329
26033SOL    HW282947   8.237   6.585   2.212
26034SOL     OW82948   7.858   6.399   3.113
26034SOL    HW182949   7.944   6.411   3.163
26034SOL    HW282950   7.816   6.312   3.140
26035SOL     OW82951   8.722   5.972   3.124
26035SOL    HW182952   8.743   6.046   3.188
26035SOL    HW282953   8.633   5.989   3.081
26036SOL     OW82954   7.512   7.150   3.193
26036SOL    HW182955   7.466   7.232   3.159
26036SOL    HW282956   7.610   7.169   3.202
26037SOL     OW82957   7.815   6.686   2.363
26037SOL    HW182958   7.808   6.769   2.307
26037SOL    HW282959   7.819   6.606   2.303
26038SOL     OW82960   8.014   6.123   2.727
26038SOL    HW182961   8.026   6.189   2.653
26038SOL    HW282962   8.060   6.157   2.810
26039SOL     OW82963   8.700   6.934   2.250
26039SOL    HW182964   8.750   7.011   2.290
26039SOL    HW282965   8.605   6.936   2.282
26040SOL     OW82966   8.720   7.031   3.004
26040SOL    HW182967   8.767   7.044   3.091
26040SOL    HW282968   8.654   6.957   3.013
26041SOL     OW82969   9.030   6.225   2.334
26041SOL    HW182970   8.999   6.286   2.407
26041SOL    HW282971   9.080   6.277   2.265
26042SOL     OW82972   7.850   6.337   3.460
26042SOL    HW182973   7.918   6.392   3.413
26042SOL    HW282974   7.890   6.249   3.487
26043SOL     OW82975   8.461   5.691   3.632
26043SOL    HW182976   8.467   5.776   3.580
26043SOL    HW282977   8.493   5.615   3.575
26044SOL     OW82978   7.952   5.636   3.602
26044SOL    HW182979   7.910   5.579   3.532
26044SOL    HW282980   7.886   5.705   3.634
26045SOL     OW82981   8.021   6.456   2.891
26045SOL    HW182982   8.065   6.545   2.882
26045SOL    HW282983   7.958   6.456   2.968
26046SOL     OW82984   8.808   6.448   2.907
26046SOL    HW182985   8.733   6.448   2.841
26046SOL    HW282986   8.845   6.356   2.916
26047SOL     OW82987   8.657   6.111   2.137
26047SOL    HW182988   8.670   6.027   2.191
26047SOL    HW282989   8.628   6.185   2.197
26048SOL     OW82990   7.755   5.799   3.093
26048SOL    HW182991   7.732   5.836   3.183
26048SOL    HW282992   7.725   5.704   3.087
26049SOL     OW82993   8.180   6.220   2.926
26049SOL    HW182994   8.239   6.194   2.850
26049SOL    HW282995   8.152   6.316   2.915
26050SOL     OW82996   9.176   6.521   3.716
26050SOL    HW182997   9.130   6.514   3.627
26050SOL    HW282998   9.114   6.565   3.782
26051SOL     OW82999   9.070   5.953   2.236
26051SOL    HW183000   9.072   5.877   2.300
26051SOL    HW283001   9.022   6.030   2.276
26052SOL     OW83002   8.428   7.159   3.562
26052SOL    HW183003   8.408   7.203   3.474
26052SOL    HW283004   8.467   7.068   3.546
26053SOL     OW83005   9.307   7.104   3.467
26053SOL    HW183006   9.321   7.131   3.372
26053SOL    HW283007   9.390   7.126   3.520
26054SOL     OW83008   7.798   6.484   3.666
26054SOL    HW183009   7.874   6.528   3.714
26054SOL    HW283010   7.833   6.437   3.584
26055SOL     OW83011   8.988   5.860   1.987
26055SOL    HW183012   8.927   5.785   2.010
26055SOL    HW283013   9.010   5.912   2.070
26056SOL     OW83014   8.751   6.424   1.904
26056SOL    HW183015   8.785   6.331   1.919
26056SOL    HW283016   8.769   6.451   1.809
26057SOL     OW83017   8.516   6.919   2.711
26057SOL    HW183018   8.523   6.835   2.656
26057SOL    HW283019   8.578   6.988   2.675
26058SOL     OW83020   7.767   6.396   2.811
26058SOL    HW183021   7.860   6.432   2.816
26058SOL    HW283022   7.761   6.311   2.863
26059SOL     OW83023   7.787   6.095   2.868
26059SOL    HW183024   7.735   6.012   2.851
26059SOL    HW283025   7.864   6.100   2.804
26060SOL     OW83026   8.586   5.966   3.540
26060SOL    HW183027   8.541   6.029   3.604
26060SOL    HW283028   8.679   5.997   3.523
26061SOL     OW83029   8.608   5.793   3.339
26061SOL    HW183030   8.608   5.857   3.416
26061SOL    HW283031   8.636   5.841   3.256
26062SOL     OW83032   7.456   6.912   2.062
26062SOL    HW183033   7.363   6.933   2.031
26062SOL    HW283034   7.466   6.813   2.075
26063SOL     OW83035   8.450   6.382   3.100
26063SOL    HW183036   8.491   6.350   3.186
26063SOL    HW283037   8.354   6.355   3.097
26064SOL     OW83038   7.488   6.130   2.976
26064SOL    HW183039   7.573   6.097   2.935
26064SOL    HW283040   7.501   6.145   3.074
26065SOL     OW83041   7.637   6.106   3.584
26065SOL    HW183042   7.696   6.066   3.514
26065SOL    HW283043   7.579   6.177   3.543
26066SOL     OW83044   8.817   6.536   3.522
26066SOL    HW183045   8.856   6.625   3.542
26066SOL    HW283046   8.827   6.516   3.425
26067SOL     OW83047   8.263   6.158   2.187
26067SOL    HW183048   8.270   6.069   2.141
26067SOL    HW283049   8.169   6.192   2.179
26068SOL     OW83050   9.105   6.190   3.068
26068SOL    HW183051   9.067   6.121   3.130
26068SOL    HW283052   9.187   6.154   3.024
26069SOL     OW83053   7.700   7.150   3.606
26069SOL    HW183054   7.670   7.207   3.682
26069SOL    HW283055   7.693   7.053   3.632
26070SOL     OW83056   8.119   6.050   3.131
26070SOL    HW183057   8.085   5.961   3.101
26070SOL    HW283058   8.145   6.104   3.051
26071SOL     OW83059   8.378   7.264   3.327
26071SOL    HW183060   8.354   7.246   3.232
26071SOL    HW283061   8.408   7.358   3.337
26072SOL     OW83062   7.921   6.086   2.053
26072SOL    HW183063   7.982   6.166   2.057
26072SOL    HW283064   7.826   6.117   2.060
26073SOL     OW83065   7.607   6.723   3.328
26073SOL    HW183066   7.629   6.662   3.404
26073SOL    HW283067   7.617   6.674   3.242
26074SOL     OW83068   8.795   6.645   3.096
26074SOL    HW183069   8.819   6.582   3.022
26074SOL    HW283070   8.705   6.685   3.078
26075SOL     OW83071   8.750   6.441   2.171
26075SOL    HW183072   8.664   6.410   2.213
26075SOL    HW283073   8.746   6.427   2.072
26076SOL     OW83074   9.207   7.333   3.016
26076SOL    HW183075   9.268   7.363   2.943
26076SOL    HW283076   9.169   7.244   2.994
26077SOL     OW83077   8.700   7.317   2.990
26077SOL    HW183078   8.784   7.322   2.936
26077SOL    HW283079   8.677   7.221   3.008
26078SOL     OW83080   8.136   7.248   3.578
26078SOL    HW183081   8.080   7.329   3.587
26078SOL    HW283082   8.188   7.252   3.492
26079SOL     OW83083   9.174   5.721   2.385
26079SOL    HW183084   9.247   5.704   2.318
26079SOL    HW283085   9.143   5.634   2.423
26080SOL     OW83086   8.836   7.159   2.339
26080SOL    HW183087   8.903   7.171   2.265
26080SOL    HW283088   8.796   7.248   2.362
26081SOL     OW83089   7.578   7.380   3.713
26081SOL    HW183090   7.537   7.306   3.766
26081SOL    HW283091   7.642   7.431   3.771
26082SOL     OW83092   8.728   6.513   2.534
26082SOL    HW183093   8.788   6.432   2.536
26082SOL    HW283094   8.768   6.582   2.474
26083SOL     OW83095   8.278   6.859   3.284
26083SOL    HW183096   8.273   6.892   3.379
26083SOL    HW283097   8.192   6.878   3.238
26084SOL     OW83098   8.120   7.202   2.016
26084SOL    HW183099   8.129   7.212   1.917
26084SOL    HW283100   8.080   7.113   2.037
26085SOL     OW83101   9.098   7.306   3.256
26085SOL    HW183102   9.151   7.316   3.172
26085SOL    HW283103   9.071   7.396   3.290
26086SOL     OW83104   9.289   5.761   2.825
26086SOL    HW183105   9.328   5.676   2.789
26086SOL    HW283106   9.191   5.763   2.806
26087SOL     OW83107   7.711   5.912   2.582
26087SOL    HW183108   7.632   5.963   2.548
26087SOL    HW283109   7.702   5.897   2.680
26088SOL     OW83110   8.642   7.198   1.893
26088SOL    HW183111   8.648   7.105   1.930
26088SOL    HW283112   8.583   7.198   1.813
26089SOL     OW83113   8.270   6.588   3.234
26089SOL    HW183114   8.310   6.587   3.142
26089SOL    HW283115   8.280   6.680   3.274
26090SOL     OW83116   8.364   6.496   2.153
26090SOL    HW183117   8.427   6.534   2.085
26090SOL    HW283118   8.404   6.413   2.192
26091SOL     OW83119   8.952   7.193   1.906
26091SOL    HW183120   8.860   7.230   1.913
26091SOL    HW283121   8.990   7.213   1.816
26092SOL     OW83122   7.820   6.874   3.352
26092SOL    HW183123   7.807   6.967   3.318
26092SOL    HW283124   7.736   6.822   3.339
26093SOL     OW83125   9.062   6.878   3.151
26093SOL    HW183126   9.122   6.881   3.231
26093SOL    HW283127   8.987   6.942   3.164
26094SOL     OW83128   8.487   6.684   2.558
26094SOL    HW183129   8.417   6.637   2.612
26094SOL    HW283130   8.546   6.616   2.515
26095SOL     OW83131   8.462   5.822   2.833
26095SOL    HW183132   8.454   5.786   2.740
26095SOL    HW283133   8.460   5.746   2.898
26096SOL     OW83134   8.038   7.073   2.353
26096SOL    HW183135   8.080   7.015   2.283
26096SOL    HW283136   7.994   7.152   2.309
26097SOL     OW83137   9.157   5.971   3.243
26097SOL    HW183138   9.230   6.040   3.247
26097SOL    HW283139   9.185   5.896   3.184
26098SOL     OW83140   7.703   6.934   2.152
26098SOL    HW183141   7.607   6.935   2.125
26098SOL    HW283142   7.715   6.987   2.236
26099SOL     OW83143   7.553   6.599   3.588
26099SOL    HW183144   7.476   6.566   3.642
26099SOL    HW283145   7.638   6.569   3.630
26100SOL     OW83146   8.120   5.789   3.351
26100SOL    HW183147   8.210   5.773   3.311
26100SOL    HW283148   8.128   5.794   3.450
26101SOL     OW83149   7.523   5.931   1.895
26101SOL    HW183150   7.431   5.903   1.866
26101SOL    HW283151   7.554   6.008   1.839
26102SOL     OW83152   8.888   6.442   3.260
26102SOL    HW183153   8.831   6.494   3.197
26102SOL    HW283154   8.984   6.454   3.236
26103SOL     OW83155   7.520   5.752   2.180
26103SOL    HW183156   7.503   5.835   2.126
26103SOL    HW283157   7.610   5.715   2.158
26104SOL     OW83158   8.631   6.921   1.981
26104SOL    HW183159   8.532   6.910   1.983
26104SOL    HW283160   8.665   6.936   2.074
26105SOL     OW83161   8.061   6.428   3.293
26105SOL    HW183162   8.117   6.509   3.276
26105SOL    HW283163   8.120   6.348   3.296
26106SOL     OW83164   8.941   7.353   2.821
26106SOL    HW183165   8.974   7.417   2.752
26106SOL    HW283166   9.007   7.347   2.896
26107SOL     OW83167   8.164   6.151   3.570
26107SOL    HW183168   8.183   6.216   3.644
26107SOL    HW283169   8.224   6.071   3.579
26108SOL     OW83170   8.898   6.806   3.495
26108SOL    HW183171   8.889   6.796   3.594
26108SOL    HW283172   8.994   6.799   3.469
26109SOL     OW83173   7.838   7.327   3.422
26109SOL    HW183174   7.747   7.368   3.420
26109SOL    HW283175   7.831   7.233   3.454
26110SOL     OW83176   9.122   6.469   3.116
26110SOL    HW183177   9.095   6.380   3.079
26110SOL    HW283178   9.123   6.537   3.043
26111SOL     OW83179   8.673   5.911   2.311
26111SOL    HW183180   8.738   5.837   2.300
26111SOL    HW283181   8.693   5.961   2.395
26112SOL     OW83182   8.042   6.331   2.514
26112SOL    HW183183   8.092   6.416   2.495
26112SOL    HW283184   7.954   6.333   2.466
26113SOL     OW83185   9.225   5.928   3.504
26113SOL    HW183186   9.208   5.959   3.410
26113SOL    HW283187   9.141   5.891   3.542
26114SOL     OW83188   9.178   6.520   3.379
26114SOL    HW183189   9.216   6.611   3.394
26114SOL    HW283190   9.170   6.503   3.280
26115SOL     OW83191   8.307   6.960   1.878
26115SOL    HW183192   8.261   6.975   1.966
26115SOL    HW283193   8.351   7.045   1.848
26116SOL     OW83194   8.109   7.376   2.815
26116SOL    HW183195   8.063   7.464   2.802
26116SOL    HW283196   8.208   7.388   2.808
26117SOL     OW83197   8.307   6.542   2.723
26117SOL    HW183198   8.361   6.473   2.771
26117SOL    HW283199   8.275   6.611   2.789
26118SOL     OW83200   8.531   6.570   1.949
26118SOL    HW183201   8.508   6.623   1.867
26118SOL    HW283202   8.612   6.514   1.930
26119SOL     OW83203   9.309   7.155   2.713
26119SOL    HW183204   9.238   7.143   2.643
26119SOL    HW283205   9.310   7.076   2.773
26120SOL     OW83206   7.669   6.900   3.706
26120SOL    HW183207   7.604   6.827   3.685
26120SOL    HW283208   7.673   6.914   3.804
26121SOL     OW83209   7.527   6.826   2.515
26121SOL    HW183210   7.526   6.779   2.603
26121SOL    HW283211   7.609   6.798   2.464
26122SOL     OW83212   8.120   6.977   3.486
26122SOL    HW183213   8.042   6.927   3.524
26122SOL    HW283214   8.117   7.072   3.517
26123SOL     OW83215   9.272   5.778   3.089
26123SOL    HW183216   9.268   5.688   3.133
26123SOL    HW283217   9.275   5.767   2.990
26124SOL     OW83218   7.876   6.010   2.382
26124SOL    HW183219   7.906   5.938   2.320
26124SOL    HW283220   7.837   5.970   2.465
26125SOL     OW83221   9.153   7.073   2.966
26125SOL    HW183222   9.060   7.048   2.939
26125SOL    HW283223   9.179   7.023   3.048
26126SOL     OW83224   7.765   6.133   3.142
26126SOL    HW183225   7.803   6.074   3.214
26126SOL    HW283226   7.805   6.107   3.054
26127SOL     OW83227   8.260   7.172   2.549
26127SOL    HW183228   8.292   7.182   2.455
26127SOL    HW283229   8.181   7.110   2.551
26128SOL     OW83230   8.872   5.800   2.974
26128SOL    HW183231   8.924   5.735   3.029
26128SOL    HW283232   8.823   5.863   3.035
26129SOL     OW83233   8.449   5.620   3.016
26129SOL    HW183234   8.386   5.548   2.985
26129SOL    HW283235   8.542   5.584   3.016
26130SOL     OW83236   8.218   6.916   2.163
26130SOL    HW183237   8.172   6.829   2.180
26130SOL    HW283238   8.309   6.913   2.204
26131SOL     OW83239   8.066   7.153   3.146
26131SOL    HW183240   8.061   7.235   3.203
26131SOL    HW283241   8.155   7.150   3.101
26132SOL     OW83242   8.800   5.638   2.030
26132SOL    HW183243   8.835   5.597   1.946
26132SOL    HW283244   8.710   5.600   2.050
26133SOL     OW83245   8.748   6.039   2.553
26133SOL    HW183246   8.689   6.119   2.557
26133SOL    HW283247   8.763   6.004   2.646
26134SOL     OW83248   9.041   5.807   2.744
26134SOL    HW183249   8.957   5.806   2.798
26134SOL    HW283250   9.043   5.890   2.688
26135SOL     OW83251   7.487   6.663   2.162
26135SOL    HW183252   7.586   6.652   2.153
26135SOL    HW283253   7.447   6.577   2.194
26136SOL     OW83254   8.323   7.232   2.199
26136SOL    HW183255   8.246   7.197   2.145
26136SOL    HW283256   8.291   7.303   2.261
26137SOL     OW83257   7.678   6.214   3.837
26137SOL    HW183258   7.585   6.212   3.874
26137SOL    HW283259   7.679   6.175   3.745
26138SOL     OW83260   7.673   5.861   4.720
26138SOL    HW183261   7.708   5.844   4.812
26138SOL    HW283262   7.585   5.816   4.708
26139SOL     OW83263   7.467   5.954   4.371
26139SOL    HW183264   7.385   5.997   4.410
26139SOL    HW283265   7.439   5.881   4.308
26140SOL     OW83266   8.017   6.861   4.889
26140SOL    HW183267   7.924   6.854   4.852
26140SOL    HW283268   8.028   6.950   4.933
26141SOL     OW83269   9.003   7.097   4.427
26141SOL    HW183270   8.946   7.081   4.508
26141SOL    HW283271   8.944   7.107   4.347
26142SOL     OW83272   8.583   6.289   4.441
26142SOL    HW183273   8.640   6.367   4.416
26142SOL    HW283274   8.523   6.315   4.517
26143SOL     OW83275   9.203   6.193   3.955
26143SOL    HW183276   9.191   6.180   3.856
26143SOL    HW283277   9.173   6.112   4.004
26144SOL     OW83278   8.216   6.730   4.747
26144SOL    HW183279   8.138   6.747   4.807
26144SOL    HW283280   8.250   6.817   4.711
26145SOL     OW83281   8.298   6.384   5.547
26145SOL    HW183282   8.294   6.460   5.612
26145SOL    HW283283   8.320   6.420   5.456
26146SOL     OW83284   8.133   6.598   4.389
26146SOL    HW183285   8.202   6.582   4.459
26146SOL    HW283286   8.060   6.655   4.427
26147SOL     OW83287   8.134   6.747   5.527
26147SOL    HW183288   8.194   6.826   5.541
26147SOL    HW283289   8.048   6.778   5.486
26148SOL     OW83290   7.783   7.021   4.785
26148SOL    HW183291   7.705   6.990   4.732
26148SOL    HW283292   7.841   7.079   4.728
26149SOL     OW83293   8.908   7.091   5.063
26149SOL    HW183294   8.932   7.185   5.089
26149SOL    HW283295   8.892   7.037   5.145
26150SOL     OW83296   7.886   5.978   5.223
26150SOL    HW183297   7.968   5.922   5.232
26150SOL    HW283298   7.805   5.920   5.227
26151SOL     OW83299   9.051   6.033   4.461
26151SOL    HW183300   8.977   6.079   4.411
26151SOL    HW283301   9.102   6.101   4.514
26152SOL     OW83302   7.679   7.299   4.207
26152SOL    HW183303   7.713   7.376   4.261
26152SOL    HW283304   7.723   7.299   4.117
26153SOL     OW83305   8.575   6.927   5.414
26153SOL    HW183306   8.622   6.927   5.502
26153SOL    HW283307   8.527   6.840   5.403
26154SOL     OW83308   7.678   7.020   4.262
26154SOL    HW183309   7.652   7.116   4.262
26154SOL    HW283310   7.607   6.966   4.307
26155SOL     OW83311   7.688   6.677   4.610
26155SOL    HW183312   7.702   6.593   4.662
26155SOL    HW283313   7.633   6.741   4.665
26156SOL     OW83314   8.068   7.372   5.163
26156SOL    HW183315   7.976   7.355   5.198
26156SOL    HW283316   8.096   7.464   5.189
26157SOL     OW83317   8.054   6.550   3.847
26157SOL    HW183318   8.061   6.634   3.793
26157SOL    HW283319   8.100   6.563   3.935
26158SOL     OW83320   9.042   5.700   5.204
26158SOL    HW183321   9.024   5.767   5.132
26158SOL    HW283322   9.039   5.746   5.293
26159SOL     OW83323   7.570   6.229   4.287
26159SOL    HW183324   7.525   6.141   4.304
26159SOL    HW283325   7.569   6.283   4.371
26160SOL     OW83326   9.137   6.508   4.336
26160SOL    HW183327   9.232   6.479   4.344
26160SOL    HW283328   9.129   6.573   4.261
26161SOL     OW83329   9.089   6.694   4.156
26161SOL    HW183330   9.175   6.696   4.104
26161SOL    HW283331   9.103   6.741   4.244
26162SOL     OW83332   7.561   6.323   5.321
26162SOL    HW183333   7.649   6.310   5.366
26162SOL    HW283334   7.548   6.420   5.299
26163SOL     OW83335   8.061   6.951   4.450
26163SOL    HW183336   8.012   6.864   4.459
26163SOL    HW283337   8.038   6.994   4.363
26164SOL     OW83338   8.741   6.814   5.147
26164SOL    HW183339   8.778   6.741   5.089
26164SOL    HW283340   8.793   6.819   5.232
26165SOL     OW83341   8.257   5.590   4.226
26165SOL    HW183342   8.297   5.681   4.217
26165SOL    HW283343   8.157   5.598   4.232
26166SOL     OW83344   7.645   6.562   4.988
26166SOL    HW183345   7.734   6.517   4.974
26166SOL    HW283346   7.572   6.497   4.969
26167SOL     OW83347   8.973   6.585   3.914
26167SOL    HW183348   8.910   6.509   3.927
26167SOL    HW283349   9.021   6.603   4.000
26168SOL     OW83350   8.635   7.378   5.340
26168SOL    HW183351   8.659   7.438   5.264
26168SOL    HW283352   8.642   7.283   5.310
26169SOL     OW83353   7.765   5.837   5.525
26169SOL    HW183354   7.836   5.908   5.531
26169SOL    HW283355   7.677   5.876   5.553
26170SOL     OW83356   8.914   7.003   4.677
26170SOL    HW183357   8.855   7.009   4.757
26170SOL    HW283358   8.899   6.915   4.631
26171SOL     OW83359   9.115   7.300   4.296
26171SOL    HW183360   9.074   7.277   4.208
26171SOL    HW283361   9.097   7.226   4.361
26172SOL     OW83362   8.046   6.315   3.994
26172SOL    HW183363   8.070   6.384   3.926
26172SOL    HW283364   7.968   6.348   4.048
26173SOL     OW83365   8.729   5.931   4.668
26173SOL    HW183366   8.643   5.881   4.655
26173SOL    HW283367   8.791   5.877   4.724
26174SOL     OW83368   9.024   7.248   4.031
26174SOL    HW183369   9.113   7.294   4.034
26174SOL    HW283370   9.003   7.224   3.936
26175SOL     OW83371   8.255   6.191   5.189
26175SOL    HW183372   8.208   6.188   5.278
26175SOL    HW283373   8.204   6.136   5.123
26176SOL     OW83374   8.842   6.055   5.398
26176SOL    HW183375   8.822   6.098   5.486
26176SOL    HW283376   8.920   5.993   5.407
26177SOL     OW83377   8.421   6.476   5.296
26177SOL    HW183378   8.467   6.392   5.267
26177SOL    HW283379   8.365   6.510   5.221
26178SOL     OW83380   8.439   5.996   4.966
26178SOL    HW183381   8.362   6.030   5.020
26178SOL    HW283382   8.405   5.945   4.887
26179SOL     OW83383   8.489   6.287   4.153
26179SOL    HW183384   8.515   6.283   4.249
26179SOL    HW283385   8.404   6.236   4.139
26180SOL     OW83386   7.524   6.397   4.513
26180SOL    HW183387   7.623   6.385   4.522
26180SOL    HW283388   7.500   6.492   4.534
26181SOL     OW83389   7.578   7.407   5.295
26181SOL    HW183390   7.568   7.392   5.394
26181SOL    HW283391   7.492   7.443   5.259
26182SOL     OW83392   8.810   6.730   4.269
26182SOL    HW183393   8.893   6.701   4.221
26182SOL    HW283394   8.761   6.797   4.213
26183SOL     OW83395   7.998   5.782   4.609
26183SOL    HW183396   7.993   5.777   4.709
26183SOL    HW283397   8.000   5.878   4.580
26184SOL     OW83398   7.799   7.387   4.577
26184SOL    HW183399   7.849   7.301   4.583
26184SOL    HW283400   7.864   7.464   4.574
26185SOL     OW83401   8.675   7.136   5.230
26185SOL    HW183402   8.681   7.059   5.294
26185SOL    HW283403   8.623   7.110   5.150
26186SOL     OW83404   7.769   6.529   3.966
26186SOL    HW183405   7.851   6.568   3.924
26186SOL    HW283406   7.742   6.447   3.917
26187SOL     OW83407   8.906   6.321   4.452
26187SOL    HW183408   8.901   6.256   4.527
26187SOL    HW283409   8.986   6.380   4.465
26188SOL     OW83410   7.909   6.852   5.451
26188SOL    HW183411   7.859   6.853   5.365
26188SOL    HW283412   7.846   6.834   5.527
26189SOL     OW83413   8.559   7.362   3.961
26189SOL    HW183414   8.499   7.300   4.011
26189SOL    HW283415   8.590   7.318   3.876
26190SOL     OW83416   7.650   5.871   5.222
26190SOL    HW183417   7.570   5.931   5.209
26190SOL    HW283418   7.640   5.822   5.308
26191SOL     OW83419   9.080   6.963   3.805
26191SOL    HW183420   9.048   7.057   3.795
26191SOL    HW283421   9.004   6.900   3.793
26192SOL     OW83422   7.912   7.329   4.047
26192SOL    HW183423   7.945   7.368   4.133
26192SOL    HW283424   7.988   7.322   3.982
26193SOL     OW83425   8.848   5.693   4.150
26193SOL    HW183426   8.824   5.656   4.060
26193SOL    HW283427   8.947   5.709   4.154
26194SOL     OW83428   7.697   7.371   4.965
26194SOL    HW183429   7.754   7.306   5.015
26194SOL    HW283430   7.681   7.338   4.872
26195SOL     OW83431   7.830   6.286   4.204
26195SOL    HW183432   7.875   6.196   4.201
26195SOL    HW283433   7.736   6.275   4.237
26196SOL     OW83434   8.995   5.808   5.453
26196SOL    HW183435   8.990   5.845   5.545
26196SOL    HW283436   8.923   5.739   5.441
26197SOL     OW83437   8.062   5.708   3.841
26197SOL    HW183438   8.160   5.686   3.848
26197SOL    HW283439   8.031   5.691   3.748
26198SOL     OW83440   8.229   5.850   5.473
26198SOL    HW183441   8.296   5.789   5.516
26198SOL    HW283442   8.156   5.869   5.538
26199SOL     OW83443   8.799   6.176   5.157
26199SOL    HW183444   8.827   6.133   5.242
26199SOL    HW283445   8.824   6.272   5.158
26200SOL     OW83446   8.370   6.089   4.623
26200SOL    HW183447   8.345   6.080   4.527
26200SOL    HW283448   8.418   6.007   4.654
26201SOL     OW83449   7.987   5.650   4.236
26201SOL    HW183450   7.906   5.651   4.294
26201SOL    HW283451   7.990   5.733   4.181
26202SOL     OW83452   8.882   6.774   3.765
26202SOL    HW183453   8.914   6.698   3.822
26202SOL    HW283454   8.790   6.801   3.795
26203SOL     OW83455   7.745   5.621   3.895
26203SOL    HW183456   7.794   5.705   3.874
26203SOL    HW283457   7.807   5.556   3.940
26204SOL     OW83458   8.383   5.822   4.204
26204SOL    HW183459   8.335   5.863   4.126
26204SOL    HW283460   8.482   5.820   4.185
26205SOL     OW83461   8.524   6.269   5.188
26205SOL    HW183462   8.444   6.208   5.191
26205SOL    HW283463   8.605   6.216   5.164
26206SOL     OW83464   7.907   6.738   4.465
26206SOL    HW183465   7.836   6.711   4.530
26206SOL    HW283466   7.881   6.710   4.372
26207SOL     OW83467   8.719   7.383   4.315
26207SOL    HW183468   8.763   7.447   4.251
26207SOL    HW283469   8.669   7.435   4.385
26208SOL     OW83470   7.526   6.142   5.110
26208SOL    HW183471   7.618   6.141   5.069
26208SOL    HW283472   7.520   6.216   5.177
26209SOL     OW83473   8.314   6.040   4.366
26209SOL    HW183474   8.282   6.112   4.304
26209SOL    HW283475   8.338   5.959   4.313
26210SOL     OW83476   8.465   5.625   4.477
26210SOL    HW183477   8.393   5.630   4.408
26210SOL    HW283478   8.441   5.556   4.546
26211SOL     OW83479   8.877   6.759   4.591
26211SOL    HW183480   8.822   6.675   4.584
26211SOL    HW283481   8.903   6.788   4.499
26212SOL     OW83482   8.914   6.176   4.716
26212SOL    HW183483   8.884   6.081   4.723
26212SOL    HW283484   8.987   6.192   4.782
26213SOL     OW83485   9.305   6.419   4.101
26213SOL    HW183486   9.347   6.355   4.165
26213SOL    HW283487   9.267   6.368   4.023
26214SOL     OW83488   7.936   6.971   3.898
26214SOL    HW183489   7.849   6.956   3.945
26214SOL    HW283490   7.919   6.997   3.803
26215SOL     OW83491   9.112   6.866   4.381
26215SOL    HW183492   9.211   6.874   4.395
26215SOL    HW283493   9.067   6.950   4.412
26216SOL     OW83494   8.838   6.161   3.802
26216SOL    HW183495   8.784   6.140   3.883
26216SOL    HW283496   8.929   6.120   3.811
26217SOL     OW83497   7.975   5.842   4.052
26217SOL    HW183498   8.002   5.783   3.977
26217SOL    HW283499   7.975   5.937   4.021
26218SOL     OW83500   9.202   6.809   5.312
26218SOL    HW183501   9.293   6.770   5.299
26218SOL    HW283502   9.210   6.905   5.336
26219SOL     OW83503   8.512   6.933   5.064
26219SOL    HW183504   8.432   6.910   5.119
26219SOL    HW283505   8.595   6.907   5.113
26220SOL     OW83506   9.040   7.215   5.349
26220SOL    HW183507   9.067   7.249   5.259
26220SOL    HW283508   9.119   7.177   5.395
26221SOL     OW83509   8.559   6.781   4.824
26221SOL    HW183510   8.519   6.825   4.905
26221SOL    HW283511   8.518   6.818   4.741
26222SOL     OW83512   9.086   6.685   4.803
26222SOL    HW183513   9.091   6.766   4.862
26222SOL    HW283514   9.000   6.687   4.752
26223SOL     OW83515   8.428   6.702   5.443
26223SOL    HW183516   8.329   6.708   5.453
26223SOL    HW283517   8.451   6.622   5.387
26224SOL     OW83518   8.153   6.636   4.092
26224SOL    HW183519   8.139   6.643   4.191
26224SOL    HW283520   8.237   6.585   4.074
26225SOL     OW83521   7.858   6.399   4.975
26225SOL    HW183522   7.944   6.411   5.025
26225SOL    HW283523   7.816   6.312   5.002
26226SOL     OW83524   8.722   5.972   4.986
26226SOL    HW183525   8.743   6.046   5.050
26226SOL    HW283526   8.633   5.989   4.943
26227SOL     OW83527   7.512   7.150   5.055
26227SOL    HW183528   7.466   7.232   5.021
26227SOL    HW283529   7.610   7.169   5.064
26228SOL     OW83530   7.815   6.686   4.225
26228SOL    HW183531   7.808   6.769   4.169
26228SOL    HW283532   7.819   6.606   4.165
26229SOL     OW83533   8.014   6.123   4.589
26229SOL    HW183534   8.026   6.189   4.515
26229SOL    HW283535   8.060   6.157   4.672
26230SOL     OW83536   8.720   7.031   4.866
26230SOL    HW183537   8.767   7.044   4.953
26230SOL    HW283538   8.654   6.957   4.875
26231SOL     OW83539   9.030   6.225   4.196
26231SOL    HW183540   8.999   6.286   4.269
26231SOL    HW283541   9.080   6.277   4.127
26232SOL     OW83542   7.802   7.096   5.053
26232SOL    HW183543   7.781   7.052   4.966
26232SOL    HW283544   7.899   7.122   5.056
26233SOL     OW83545   7.850   6.337   5.322
26233SOL    HW183546   7.918   6.392   5.275
26233SOL    HW283547   7.890   6.249   5.349
26234SOL     OW83548   8.461   5.691   5.494
26234SOL    HW183549   8.467   5.776   5.442
26234SOL    HW283550   8.493   5.615   5.437
26235SOL     OW83551   7.952   5.636   5.464
26235SOL    HW183552   7.910   5.579   5.394
26235SOL    HW283553   7.886   5.705   5.496
26236SOL     OW83554   8.021   6.456   4.753
26236SOL    HW183555   8.065   6.545   4.744
26236SOL    HW283556   7.958   6.456   4.830
26237SOL     OW83557   8.808   6.448   4.769
26237SOL    HW183558   8.733   6.448   4.703
26237SOL    HW283559   8.845   6.356   4.778
26238SOL     OW83560   8.657   6.111   3.999
26238SOL    HW183561   8.670   6.027   4.053
26238SOL    HW283562   8.628   6.185   4.059
26239SOL     OW83563   7.755   5.799   4.955
26239SOL    HW183564   7.732   5.836   5.045
26239SOL    HW283565   7.725   5.704   4.949
26240SOL     OW83566   7.485   6.896   5.006
26240SOL    HW183567   7.538   6.847   5.074
26240SOL    HW283568   7.507   6.994   5.011
26241SOL     OW83569   8.180   6.220   4.788
26241SOL    HW183570   8.239   6.194   4.712
26241SOL    HW283571   8.152   6.316   4.777
26242SOL     OW83572   7.755   5.649   4.342
26242SOL    HW183573   7.744   5.743   4.375
26242SOL    HW283574   7.750   5.586   4.419
26243SOL     OW83575   9.070   5.953   4.098
26243SOL    HW183576   9.072   5.877   4.162
26243SOL    HW283577   9.022   6.030   4.138
26244SOL     OW83578   8.471   6.352   4.690
26244SOL    HW183579   8.486   6.373   4.786
26244SOL    HW283580   8.441   6.257   4.681
26245SOL     OW83581   8.428   7.159   5.424
26245SOL    HW183582   8.408   7.203   5.336
26245SOL    HW283583   8.467   7.068   5.408
26246SOL     OW83584   9.307   7.104   5.329
26246SOL    HW183585   9.321   7.131   5.234
26246SOL    HW283586   9.390   7.126   5.382
26247SOL     OW83587   7.798   6.484   5.528
26247SOL    HW183588   7.874   6.528   5.576
26247SOL    HW283589   7.833   6.437   5.446
26248SOL     OW83590   8.988   5.860   3.849
26248SOL    HW183591   8.927   5.785   3.872
26248SOL    HW283592   9.010   5.912   3.932
26249SOL     OW83593   8.751   6.424   3.766
26249SOL    HW183594   8.785   6.331   3.781
26249SOL    HW283595   8.769   6.451   3.671
26250SOL     OW83596   8.516   6.919   4.573
26250SOL    HW183597   8.523   6.835   4.518
26250SOL    HW283598   8.578   6.988   4.537
26251SOL     OW83599   7.767   6.396   4.673
26251SOL    HW183600   7.860   6.432   4.678
26251SOL    HW283601   7.761   6.311   4.725
26252SOL     OW83602   7.787   6.095   4.730
26252SOL    HW183603   7.735   6.012   4.713
26252SOL    HW283604   7.864   6.100   4.666
26253SOL     OW83605   8.586   5.966   5.402
26253SOL    HW183606   8.541   6.029   5.466
26253SOL    HW283607   8.679   5.997   5.385
26254SOL     OW83608   7.456   6.912   3.924
26254SOL    HW183609   7.363   6.933   3.893
26254SOL    HW283610   7.466   6.813   3.937
26255SOL     OW83611   7.536   7.387   4.651
26255SOL    HW183612   7.494   7.301   4.624
26255SOL    HW283613   7.630   7.390   4.617
26256SOL     OW83614   7.952   7.154   4.634
26256SOL    HW183615   8.018   7.228   4.643
26256SOL    HW283616   7.996   7.075   4.592
26257SOL     OW83617   8.450   6.382   4.962
26257SOL    HW183618   8.491   6.350   5.048
26257SOL    HW283619   8.354   6.355   4.959
26258SOL     OW83620   7.637   6.106   5.446
26258SOL    HW183621   7.696   6.066   5.376
26258SOL    HW283622   7.579   6.177   5.405
26259SOL     OW83623   8.817   6.536   5.384
26259SOL    HW183624   8.856   6.625   5.404
26259SOL    HW283625   8.827   6.516   5.287
26260SOL     OW83626   8.263   6.158   4.049
26260SOL    HW183627   8.270   6.069   4.003
26260SOL    HW283628   8.169   6.192   4.041
26261SOL     OW83629   9.105   6.190   4.930
26261SOL    HW183630   9.067   6.121   4.992
26261SOL    HW283631   9.187   6.154   4.886
26262SOL     OW83632   7.700   7.150   5.468
26262SOL    HW183633   7.670   7.207   5.544
26262SOL    HW283634   7.693   7.053   5.494
26263SOL     OW83635   8.119   6.050   4.993
26263SOL    HW183636   8.085   5.961   4.963
26263SOL    HW283637   8.145   6.104   4.913
26264SOL     OW83638   8.378   7.264   5.189
26264SOL    HW183639   8.354   7.246   5.094
26264SOL    HW283640   8.408   7.358   5.199
26265SOL     OW83641   7.921   6.086   3.915
26265SOL    HW183642   7.982   6.166   3.919
26265SOL    HW283643   7.826   6.117   3.922
26266SOL     OW83644   7.607   6.723   5.190
26266SOL    HW183645   7.629   6.662   5.266
26266SOL    HW283646   7.617   6.674   5.104
26267SOL     OW83647   8.795   6.645   4.958
26267SOL    HW183648   8.819   6.582   4.884
26267SOL    HW283649   8.705   6.685   4.940
26268SOL     OW83650   8.750   6.441   4.033
26268SOL    HW183651   8.664   6.410   4.075
26268SOL    HW283652   8.746   6.427   3.934
26269SOL     OW83653   9.207   7.333   4.878
26269SOL    HW183654   9.268   7.363   4.805
26269SOL    HW283655   9.169   7.244   4.856
26270SOL     OW83656   8.700   7.317   4.852
26270SOL    HW183657   8.784   7.322   4.798
26270SOL    HW283658   8.677   7.221   4.870
26271SOL     OW83659   7.531   6.844   4.746
26271SOL    HW183660   7.526   6.843   4.846
26271SOL    HW283661   7.448   6.803   4.708
26272SOL     OW83662   8.136   7.248   5.440
26272SOL    HW183663   8.080   7.329   5.449
26272SOL    HW283664   8.188   7.252   5.354
26273SOL     OW83665   9.174   5.721   4.247
26273SOL    HW183666   9.247   5.704   4.180
26273SOL    HW283667   9.143   5.634   4.285
26274SOL     OW83668   8.836   7.159   4.201
26274SOL    HW183669   8.903   7.171   4.127
26274SOL    HW283670   8.796   7.248   4.224
26275SOL     OW83671   7.578   7.380   5.575
26275SOL    HW183672   7.537   7.306   5.628
26275SOL    HW283673   7.642   7.431   5.633
26276SOL     OW83674   8.728   6.513   4.396
26276SOL    HW183675   8.788   6.432   4.398
26276SOL    HW283676   8.768   6.582   4.336
26277SOL     OW83677   8.278   6.859   5.146
26277SOL    HW183678   8.273   6.892   5.241
26277SOL    HW283679   8.192   6.878   5.100
26278SOL     OW83680   8.120   7.202   3.878
26278SOL    HW183681   8.129   7.212   3.779
26278SOL    HW283682   8.080   7.113   3.899
26279SOL     OW83683   9.098   7.306   5.118
26279SOL    HW183684   9.151   7.316   5.034
26279SOL    HW283685   9.071   7.396   5.152
26280SOL     OW83686   9.289   5.761   4.687
26280SOL    HW183687   9.328   5.676   4.651
26280SOL    HW283688   9.191   5.763   4.668
26281SOL     OW83689   7.711   5.912   4.444
26281SOL    HW183690   7.632   5.963   4.410
26281SOL    HW283691   7.702   5.897   4.542
26282SOL     OW83692   8.642   7.198   3.755
26282SOL    HW183693   8.648   7.105   3.792
26282SOL    HW283694   8.583   7.198   3.675
26283SOL     OW83695   8.270   6.588   5.096
26283SOL    HW183696   8.310   6.587   5.004
26283SOL    HW283697   8.280   6.680   5.136
26284SOL     OW83698   8.364   6.496   4.015
26284SOL    HW183699   8.427   6.534   3.947
26284SOL    HW283700   8.404   6.413   4.054
26285SOL     OW83701   8.952   7.193   3.768
26285SOL    HW183702   8.860   7.230   3.775
26285SOL    HW283703   8.990   7.213   3.678
26286SOL     OW83704   7.820   6.874   5.214
26286SOL    HW183705   7.807   6.967   5.180
26286SOL    HW283706   7.736   6.822   5.201
26287SOL     OW83707   9.062   6.878   5.013
26287SOL    HW183708   9.122   6.881   5.093
26287SOL    HW283709   8.987   6.942   5.026
26288SOL     OW83710   8.487   6.684   4.420
26288SOL    HW183711   8.417   6.637   4.474
26288SOL    HW283712   8.546   6.616   4.377
26289SOL     OW83713   8.462   5.822   4.695
26289SOL    HW183714   8.454   5.786   4.602
26289SOL    HW283715   8.460   5.746   4.760
26290SOL     OW83716   8.038   7.073   4.215
26290SOL    HW183717   8.080   7.015   4.145
26290SOL    HW283718   7.994   7.152   4.171
26291SOL     OW83719   9.157   5.971   5.105
26291SOL    HW183720   9.230   6.040   5.109
26291SOL    HW283721   9.185   5.896   5.046
26292SOL     OW83722   7.703   6.934   4.014
26292SOL    HW183723   7.607   6.935   3.987
26292SOL    HW283724   7.715   6.987   4.098
26293SOL     OW83725   7.553   6.599   5.450
26293SOL    HW183726   7.476   6.566   5.504
26293SOL    HW283727   7.638   6.569   5.492
26294SOL     OW83728   8.120   5.789   5.213
26294SOL    HW183729   8.210   5.773   5.173
26294SOL    HW283730   8.128   5.794   5.312
26295SOL     OW83731   7.523   5.931   3.757
26295SOL    HW183732   7.431   5.903   3.728
26295SOL    HW283733   7.554   6.008   3.701
26296SOL     OW83734   8.888   6.442   5.122
26296SOL    HW183735   8.831   6.494   5.059
26296SOL    HW283736   8.984   6.454   5.098
26297SOL     OW83737   7.520   5.752   4.042
26297SOL    HW183738   7.503   5.835   3.988
26297SOL    HW283739   7.610   5.715   4.020
26298SOL     OW83740   8.631   6.921   3.843
26298SOL    HW183741   8.532   6.910   3.845
26298SOL    HW283742   8.665   6.936   3.936
26299SOL     OW83743   8.061   6.428   5.155
26299SOL    HW183744   8.117   6.509   5.138
26299SOL    HW283745   8.120   6.348   5.158
26300SOL     OW83746   8.941   7.353   4.683
26300SOL    HW183747   8.974   7.417   4.614
26300SOL    HW283748   9.007   7.347   4.758
26301SOL     OW83749   8.164   6.151   5.432
26301SOL    HW183750   8.183   6.216   5.506
26301SOL    HW283751   8.224   6.071   5.441
26302SOL     OW83752   8.898   6.806   5.357
26302SOL    HW183753   8.889   6.796   5.456
26302SOL    HW283754   8.994   6.799   5.331
26303SOL     OW83755   7.838   7.327   5.284
26303SOL    HW183756   7.747   7.368   5.282
26303SOL    HW283757   7.831   7.233   5.316
26304SOL     OW83758   9.122   6.469   4.978
26304SOL    HW183759   9.095   6.380   4.941
26304SOL    HW283760   9.123   6.537   4.905
26305SOL     OW83761   8.673   5.911   4.173
26305SOL    HW183762   8.738   5.837   4.162
26305SOL    HW283763   8.693   5.961   4.257
26306SOL     OW83764   8.042   6.331   4.376
26306SOL    HW183765   8.092   6.416   4.357
26306SOL    HW283766   7.954   6.333   4.328
26307SOL     OW83767   9.225   5.928   5.366
26307SOL    HW183768   9.208   5.959   5.272
26307SOL    HW283769   9.141   5.891   5.404
26308SOL     OW83770   9.178   6.520   5.241
26308SOL    HW183771   9.216   6.611   5.256
26308SOL    HW283772   9.170   6.503   5.142
26309SOL     OW83773   8.109   7.376   4.677
26309SOL    HW183774   8.063   7.464   4.664
26309SOL    HW283775   8.208   7.388   4.670
26310SOL     OW83776   8.307   6.542   4.585
26310SOL    HW183777   8.361   6.473   4.633
26310SOL    HW283778   8.275   6.611   4.651
26311SOL     OW83779   8.531   6.570   3.811
26311SOL    HW183780   8.508   6.623   3.729
26311SOL    HW283781   8.612   6.514   3.792
26312SOL     OW83782   9.309   7.155   4.575
26312SOL    HW183783   9.238   7.143   4.505
26312SOL    HW283784   9.310   7.076   4.635
26313SOL     OW83785   7.669   6.900   5.568
26313SOL    HW183786   7.604   6.827   5.547
26313SOL    HW283787   7.673   6.914   5.666
26314SOL     OW83788   7.527   6.826   4.377
26314SOL    HW183789   7.526   6.779   4.465
26314SOL    HW283790   7.609   6.798   4.326
26315SOL     OW83791   8.120   6.977   5.348
26315SOL    HW183792   8.042   6.927   5.386
26315SOL    HW283793   8.117   7.072   5.379
26316SOL     OW83794   9.272   5.778   4.951
26316SOL    HW183795   9.268   5.688   4.995
26316SOL    HW283796   9.275   5.767   4.852
26317SOL     OW83797   7.876   6.010   4.244
26317SOL    HW183798   7.906   5.938   4.182
26317SOL    HW283799   7.837   5.970   4.327
26318SOL     OW83800   9.153   7.073   4.828
26318SOL    HW183801   9.060   7.048   4.801
26318SOL    HW283802   9.179   7.023   4.910
26319SOL     OW83803   7.765   6.133   5.004
26319SOL    HW183804   7.803   6.074   5.076
26319SOL    HW283805   7.805   6.107   4.916
26320SOL     OW83806   8.872   5.800   4.836
26320SOL    HW183807   8.924   5.735   4.891
26320SOL    HW283808   8.823   5.863   4.897
26321SOL     OW83809   8.748   6.039   4.415
26321SOL    HW183810   8.689   6.119   4.419
26321SOL    HW283811   8.763   6.004   4.508
26322SOL     OW83812   9.041   5.807   4.606
26322SOL    HW183813   8.957   5.806   4.660
26322SOL    HW283814   9.043   5.890   4.550
26323SOL     OW83815   7.487   6.663   4.024
26323SOL    HW183816   7.586   6.652   4.015
26323SOL    HW283817   7.447   6.577   4.056
26324SOL     OW83818   8.323   7.232   4.061
26324SOL    HW183819   8.246   7.197   4.007
26324SOL    HW283820   8.291   7.303   4.123
26325SOL     OW83821   7.678   6.214   5.699
26325SOL    HW183822   7.585   6.212   5.736
26325SOL    HW283823   7.679   6.175   5.607
26326SOL     OW83824   7.673   5.861   6.582
26326SOL    HW183825   7.708   5.844   6.674
26326SOL    HW283826   7.585   5.816   6.570
26327SOL     OW83827   7.467   5.954   6.233
26327SOL    HW183828   7.385   5.997   6.272
26327SOL    HW283829   7.439   5.881   6.170
26328SOL     OW83830   9.003   7.097   6.289
26328SOL    HW183831   8.946   7.081   6.370
26328SOL    HW283832   8.944   7.107   6.209
26329SOL     OW83833   8.583   6.289   6.303
26329SOL    HW183834   8.640   6.367   6.278
26329SOL    HW283835   8.523   6.315   6.379
26330SOL     OW83836   8.216   6.730   6.609
26330SOL    HW183837   8.138   6.747   6.669
26330SOL    HW283838   8.250   6.817   6.573
26331SOL     OW83839   8.133   6.598   6.251
26331SOL    HW183840   8.202   6.582   6.321
26331SOL    HW283841   8.060   6.655   6.289
26332SOL     OW83842   8.134   6.747   7.389
26332SOL    HW183843   8.194   6.826   7.403
26332SOL    HW283844   8.048   6.778   7.348
26333SOL     OW83845   7.783   7.021   6.647
26333SOL    HW183846   7.705   6.990   6.594
26333SOL    HW283847   7.841   7.079   6.590
26334SOL     OW83848   8.908   7.091   6.925
26334SOL    HW183849   8.932   7.185   6.951
26334SOL    HW283850   8.892   7.037   7.007
26335SOL     OW83851   7.886   5.978   7.085
26335SOL    HW183852   7.968   5.922   7.094
26335SOL    HW283853   7.805   5.920   7.089
26336SOL     OW83854   9.051   6.033   6.323
26336SOL    HW183855   8.977   6.079   6.273
26336SOL    HW283856   9.102   6.101   6.376
26337SOL     OW83857   7.679   7.299   6.069
26337SOL    HW183858   7.713   7.376   6.123
26337SOL    HW283859   7.723   7.299   5.979
26338SOL     OW83860   8.575   6.927   7.276
26338SOL    HW183861   8.622   6.927   7.364
26338SOL    HW283862   8.527   6.840   7.265
26339SOL     OW83863   7.678   7.020   6.124
26339SOL    HW183864   7.652   7.116   6.124
26339SOL    HW283865   7.607   6.966   6.169
26340SOL     OW83866   7.688   6.677   6.472
26340SOL    HW183867   7.702   6.593   6.524
26340SOL    HW283868   7.633   6.741   6.527
26341SOL     OW83869   8.054   6.550   5.709
26341SOL    HW183870   8.061   6.634   5.655
26341SOL    HW283871   8.100   6.563   5.797
26342SOL     OW83872   9.042   5.700   7.066
26342SOL    HW183873   9.024   5.767   6.994
26342SOL    HW283874   9.039   5.746   7.155
26343SOL     OW83875   7.570   6.229   6.149
26343SOL    HW183876   7.525   6.141   6.166
26343SOL    HW283877   7.569   6.283   6.233
26344SOL     OW83878   9.290   7.353   5.945
26344SOL    HW183879   9.344   7.324   6.025
26344SOL    HW283880   9.320   7.443   5.916
26345SOL     OW83881   7.475   7.182   5.703
26345SOL    HW183882   7.456   7.086   5.724
26345SOL    HW283883   7.442   7.240   5.778
26346SOL     OW83884   7.561   6.323   7.183
26346SOL    HW183885   7.649   6.310   7.228
26346SOL    HW283886   7.548   6.420   7.161
26347SOL     OW83887   8.061   6.951   6.312
26347SOL    HW183888   8.012   6.864   6.321
26347SOL    HW283889   8.038   6.994   6.225
26348SOL     OW83890   8.741   6.814   7.009
26348SOL    HW183891   8.778   6.741   6.951
26348SOL    HW283892   8.793   6.819   7.094
26349SOL     OW83893   8.257   5.590   6.088
26349SOL    HW183894   8.297   5.681   6.079
26349SOL    HW283895   8.157   5.598   6.094
26350SOL     OW83896   7.645   6.562   6.850
26350SOL    HW183897   7.734   6.517   6.836
26350SOL    HW283898   7.572   6.497   6.831
26351SOL     OW83899   8.635   7.378   7.202
26351SOL    HW183900   8.659   7.438   7.126
26351SOL    HW283901   8.642   7.283   7.172
26352SOL     OW83902   7.765   5.837   7.387
26352SOL    HW183903   7.836   5.908   7.393
26352SOL    HW283904   7.677   5.876   7.415
26353SOL     OW83905   8.914   7.003   6.539
26353SOL    HW183906   8.855   7.009   6.619
26353SOL    HW283907   8.899   6.915   6.493
26354SOL     OW83908   9.115   7.300   6.158
26354SOL    HW183909   9.074   7.277   6.070
26354SOL    HW283910   9.097   7.226   6.223
26355SOL     OW83911   8.046   6.315   5.856
26355SOL    HW183912   8.070   6.384   5.788
26355SOL    HW283913   7.968   6.348   5.910
26356SOL     OW83914   8.729   5.931   6.530
26356SOL    HW183915   8.643   5.881   6.517
26356SOL    HW283916   8.791   5.877   6.586
26357SOL     OW83917   9.024   7.248   5.893
26357SOL    HW183918   9.113   7.294   5.896
26357SOL    HW283919   9.003   7.224   5.798
26358SOL     OW83920   8.255   6.191   7.051
26358SOL    HW183921   8.208   6.188   7.140
26358SOL    HW283922   8.204   6.136   6.985
26359SOL     OW83923   8.842   6.055   7.260
26359SOL    HW183924   8.822   6.098   7.348
26359SOL    HW283925   8.920   5.993   7.269
26360SOL     OW83926   8.439   5.996   6.828
26360SOL    HW183927   8.362   6.030   6.882
26360SOL    HW283928   8.405   5.945   6.749
26361SOL     OW83929   8.489   6.287   6.015
26361SOL    HW183930   8.515   6.283   6.111
26361SOL    HW283931   8.404   6.236   6.001
26362SOL     OW83932   7.524   6.397   6.375
26362SOL    HW183933   7.623   6.385   6.384
26362SOL    HW283934   7.500   6.492   6.396
26363SOL     OW83935   7.578   7.407   7.157
26363SOL    HW183936   7.568   7.392   7.256
26363SOL    HW283937   7.492   7.443   7.121
26364SOL     OW83938   8.313   5.934   5.781
26364SOL    HW183939   8.372   5.997   5.732
26364SOL    HW283940   8.332   5.840   5.752
26365SOL     OW83941   9.167   6.171   7.417
26365SOL    HW183942   9.141   6.260   7.381
26365SOL    HW283943   9.165   6.103   7.344
26366SOL     OW83944   8.810   6.730   6.131
26366SOL    HW183945   8.893   6.701   6.083
26366SOL    HW283946   8.761   6.797   6.075
26367SOL     OW83947   7.998   5.782   6.471
26367SOL    HW183948   7.993   5.777   6.571
26367SOL    HW283949   8.000   5.878   6.442
26368SOL     OW83950   7.799   7.387   6.439
26368SOL    HW183951   7.849   7.301   6.445
26368SOL    HW283952   7.864   7.464   6.436
26369SOL     OW83953   8.675   7.136   7.092
26369SOL    HW183954   8.681   7.059   7.156
26369SOL    HW283955   8.623   7.110   7.012
26370SOL     OW83956   7.769   6.529   5.828
26370SOL    HW183957   7.851   6.568   5.786
26370SOL    HW283958   7.742   6.447   5.779
26371SOL     OW83959   7.909   6.852   7.313
26371SOL    HW183960   7.859   6.853   7.227
26371SOL    HW283961   7.846   6.834   7.389
26372SOL     OW83962   7.650   5.871   7.084
26372SOL    HW183963   7.570   5.931   7.071
26372SOL    HW283964   7.640   5.822   7.170
26373SOL     OW83965   9.080   6.963   5.667
26373SOL    HW183966   9.048   7.057   5.657
26373SOL    HW283967   9.004   6.900   5.655
26374SOL     OW83968   7.912   7.329   5.909
26374SOL    HW183969   7.945   7.368   5.995
26374SOL    HW283970   7.988   7.322   5.844
26375SOL     OW83971   8.848   5.693   6.012
26375SOL    HW183972   8.824   5.656   5.922
26375SOL    HW283973   8.947   5.709   6.016
26376SOL     OW83974   7.697   7.371   6.827
26376SOL    HW183975   7.754   7.306   6.877
26376SOL    HW283976   7.681   7.338   6.734
26377SOL     OW83977   8.388   7.284   6.490
26377SOL    HW183978   8.468   7.227   6.511
26377SOL    HW283979   8.339   7.244   6.413
26378SOL     OW83980   7.830   6.286   6.066
26378SOL    HW183981   7.875   6.196   6.063
26378SOL    HW283982   7.736   6.275   6.099
26379SOL     OW83983   8.995   5.808   7.315
26379SOL    HW183984   8.990   5.845   7.407
26379SOL    HW283985   8.923   5.739   7.303
26380SOL     OW83986   8.062   5.708   5.703
26380SOL    HW183987   8.160   5.686   5.710
26380SOL    HW283988   8.031   5.691   5.610
26381SOL     OW83989   8.229   5.850   7.335
26381SOL    HW183990   8.296   5.789   7.378
26381SOL    HW283991   8.156   5.869   7.400
26382SOL     OW83992   8.336   7.100   6.781
26382SOL    HW183993   8.313   7.075   6.687
26382SOL    HW283994   8.397   7.031   6.820
26383SOL     OW83995   8.799   6.176   7.019
26383SOL    HW183996   8.827   6.133   7.104
26383SOL    HW283997   8.824   6.272   7.020
26384SOL     OW83998   8.251   6.988   6.510
26384SOL    HW183999   8.341   7.002   6.468
26384SOL    HW284000   8.180   6.990   6.439
26385SOL     OW84001   8.370   6.089   6.485
26385SOL    HW184002   8.345   6.080   6.389
26385SOL    HW284003   8.418   6.007   6.516
26386SOL     OW84004   7.987   5.650   6.098
26386SOL    HW184005   7.906   5.651   6.156
26386SOL    HW284006   7.990   5.733   6.043
26387SOL     OW84007   8.882   6.774   5.627
26387SOL    HW184008   8.914   6.698   5.684
26387SOL    HW284009   8.790   6.801   5.657
26388SOL     OW84010   7.745   5.621   5.757
26388SOL    HW184011   7.794   5.705   5.736
26388SOL    HW284012   7.807   5.556   5.802
26389SOL     OW84013   8.383   5.822   6.066
26389SOL    HW184014   8.335   5.863   5.988
26389SOL    HW284015   8.482   5.820   6.047
26390SOL     OW84016   8.675   7.156   6.379
26390SOL    HW184017   8.696   7.230   6.314
26390SOL    HW284018   8.743   7.156   6.452
26391SOL     OW84019   7.907   6.738   6.327
26391SOL    HW184020   7.836   6.711   6.392
26391SOL    HW284021   7.881   6.710   6.234
26392SOL     OW84022   8.719   7.383   6.177
26392SOL    HW184023   8.763   7.447   6.113
26392SOL    HW284024   8.669   7.435   6.247
26393SOL     OW84025   8.480   6.135   5.602
26393SOL    HW184026   8.439   6.217   5.563
26393SOL    HW284027   8.544   6.161   5.675
26394SOL     OW84028   7.526   6.142   6.972
26394SOL    HW184029   7.618   6.141   6.931
26394SOL    HW284030   7.520   6.216   7.039
26395SOL     OW84031   8.009   5.808   6.733
26395SOL    HW184032   8.047   5.724   6.770
26395SOL    HW284033   7.921   5.827   6.777
26396SOL     OW84034   8.314   6.040   6.228
26396SOL    HW184035   8.282   6.112   6.166
26396SOL    HW284036   8.338   5.959   6.175
26397SOL     OW84037   8.465   5.625   6.339
26397SOL    HW184038   8.393   5.630   6.270
26397SOL    HW284039   8.441   5.556   6.408
26398SOL     OW84040   8.877   6.759   6.453
26398SOL    HW184041   8.822   6.675   6.446
26398SOL    HW284042   8.903   6.788   6.361
26399SOL     OW84043   8.914   6.176   6.578
26399SOL    HW184044   8.884   6.081   6.585
26399SOL    HW284045   8.987   6.192   6.644
26400SOL     OW84046   7.936   6.971   5.760
26400SOL    HW184047   7.849   6.956   5.807
26400SOL    HW284048   7.919   6.997   5.665
26401SOL     OW84049   9.112   6.866   6.243
26401SOL    HW184050   9.211   6.874   6.257
26401SOL    HW284051   9.067   6.950   6.274
26402SOL     OW84052   7.975   5.842   5.914
26402SOL    HW184053   8.002   5.783   5.839
26402SOL    HW284054   7.975   5.937   5.883
26403SOL     OW84055   9.202   6.809   7.174
26403SOL    HW184056   9.293   6.770   7.161
26403SOL    HW284057   9.210   6.905   7.198
26404SOL     OW84058   8.512   6.933   6.926
26404SOL    HW184059   8.432   6.910   6.981
26404SOL    HW284060   8.595   6.907   6.975
26405SOL     OW84061   9.040   7.215   7.211
26405SOL    HW184062   9.067   7.249   7.121
26405SOL    HW284063   9.119   7.177   7.257
26406SOL     OW84064   8.559   6.781   6.686
26406SOL    HW184065   8.519   6.825   6.767
26406SOL    HW284066   8.518   6.818   6.603
26407SOL     OW84067   8.363   5.675   6.988
26407SOL    HW184068   8.388   5.655   6.893
26407SOL    HW284069   8.435   5.731   7.030
26408SOL     OW84070   8.153   6.636   5.954
26408SOL    HW184071   8.139   6.643   6.053
26408SOL    HW284072   8.237   6.585   5.936
26409SOL     OW84073   7.858   6.399   6.837
26409SOL    HW184074   7.944   6.411   6.887
26409SOL    HW284075   7.816   6.312   6.864
26410SOL     OW84076   8.722   5.972   6.848
26410SOL    HW184077   8.743   6.046   6.912
26410SOL    HW284078   8.633   5.989   6.805
26411SOL     OW84079   7.512   7.150   6.917
26411SOL    HW184080   7.466   7.232   6.883
26411SOL    HW284081   7.610   7.169   6.926
26412SOL     OW84082   7.815   6.686   6.087
26412SOL    HW184083   7.808   6.769   6.031
26412SOL    HW284084   7.819   6.606   6.027
26413SOL     OW84085   8.014   6.123   6.451
26413SOL    HW184086   8.026   6.189   6.377
26413SOL    HW284087   8.060   6.157   6.534
26414SOL     OW84088   8.700   6.934   5.974
26414SOL    HW184089   8.750   7.011   6.014
26414SOL    HW284090   8.605   6.936   6.006
26415SOL     OW84091   8.720   7.031   6.728
26415SOL    HW184092   8.767   7.044   6.815
26415SOL    HW284093   8.654   6.957   6.737
26416SOL     OW84094   7.850   6.337   7.184
26416SOL    HW184095   7.918   6.392   7.137
26416SOL    HW284096   7.890   6.249   7.211
26417SOL     OW84097   9.035   6.365   7.256
26417SOL    HW184098   8.943   6.403   7.251
26417SOL    HW284099   9.095   6.412   7.191
26418SOL     OW84100   8.461   5.691   7.356
26418SOL    HW184101   8.467   5.776   7.304
26418SOL    HW284102   8.493   5.615   7.299
26419SOL     OW84103   7.952   5.636   7.326
26419SOL    HW184104   7.910   5.579   7.256
26419SOL    HW284105   7.886   5.705   7.358
26420SOL     OW84106   8.021   6.456   6.615
26420SOL    HW184107   8.065   6.545   6.606
26420SOL    HW284108   7.958   6.456   6.692
26421SOL     OW84109   8.808   6.448   6.631
26421SOL    HW184110   8.733   6.448   6.565
26421SOL    HW284111   8.845   6.356   6.640
26422SOL     OW84112   8.657   6.111   5.861
26422SOL    HW184113   8.670   6.027   5.915
26422SOL    HW284114   8.628   6.185   5.921
26423SOL     OW84115   7.755   5.799   6.817
26423SOL    HW184116   7.732   5.836   6.907
26423SOL    HW284117   7.725   5.704   6.811
26424SOL     OW84118   7.485   6.896   6.868
26424SOL    HW184119   7.538   6.847   6.936
26424SOL    HW284120   7.507   6.994   6.873
26425SOL     OW84121   8.180   6.220   6.650
26425SOL    HW184122   8.239   6.194   6.574
26425SOL    HW284123   8.152   6.316   6.639
26426SOL     OW84124   9.176   6.521   7.440
26426SOL    HW184125   9.130   6.514   7.351
26426SOL    HW284126   9.114   6.565   7.506
26427SOL     OW84127   7.755   5.649   6.204
26427SOL    HW184128   7.744   5.743   6.237
26427SOL    HW284129   7.750   5.586   6.281
26428SOL     OW84130   9.070   5.953   5.960
26428SOL    HW184131   9.072   5.877   6.024
26428SOL    HW284132   9.022   6.030   6.000
26429SOL     OW84133   8.471   6.352   6.552
26429SOL    HW184134   8.486   6.373   6.648
26429SOL    HW284135   8.441   6.257   6.543
26430SOL     OW84136   9.307   7.104   7.191
26430SOL    HW184137   9.321   7.131   7.096
26430SOL    HW284138   9.390   7.126   7.244
26431SOL     OW84139   7.798   6.484   7.390
26431SOL    HW184140   7.874   6.528   7.438
26431SOL    HW284141   7.833   6.437   7.308
26432SOL     OW84142   8.751   6.424   5.628
26432SOL    HW184143   8.785   6.331   5.643
26432SOL    HW284144   8.769   6.451   5.533
26433SOL     OW84145   8.516   6.919   6.435
26433SOL    HW184146   8.523   6.835   6.380
26433SOL    HW284147   8.578   6.988   6.399
26434SOL     OW84148   7.767   6.396   6.535
26434SOL    HW184149   7.860   6.432   6.540
26434SOL    HW284150   7.761   6.311   6.587
26435SOL     OW84151   7.787   6.095   6.592
26435SOL    HW184152   7.735   6.012   6.575
26435SOL    HW284153   7.864   6.100   6.528
26436SOL     OW84154   8.586   5.966   7.264
26436SOL    HW184155   8.541   6.029   7.328
26436SOL    HW284156   8.679   5.997   7.247
26437SOL     OW84157   8.608   5.793   7.063
26437SOL    HW184158   8.608   5.857   7.140
26437SOL    HW284159   8.636   5.841   6.980
26438SOL     OW84160   7.456   6.912   5.786
26438SOL    HW184161   7.363   6.933   5.755
26438SOL    HW284162   7.466   6.813   5.799
26439SOL     OW84163   7.536   7.387   6.513
26439SOL    HW184164   7.494   7.301   6.486
26439SOL    HW284165   7.630   7.390   6.479
26440SOL     OW84166   7.952   7.154   6.496
26440SOL    HW184167   8.018   7.228   6.505
26440SOL    HW284168   7.996   7.075   6.454
26441SOL     OW84169   7.488   6.130   6.700
26441SOL    HW184170   7.573   6.097   6.659
26441SOL    HW284171   7.501   6.145   6.798
26442SOL     OW84172   7.637   6.106   7.308
26442SOL    HW184173   7.696   6.066   7.238
26442SOL    HW284174   7.579   6.177   7.267
26443SOL     OW84175   8.817   6.536   7.246
26443SOL    HW184176   8.856   6.625   7.266
26443SOL    HW284177   8.827   6.516   7.149
26444SOL     OW84178   8.263   6.158   5.911
26444SOL    HW184179   8.270   6.069   5.865
26444SOL    HW284180   8.169   6.192   5.903
26445SOL     OW84181   9.105   6.190   6.792
26445SOL    HW184182   9.067   6.121   6.854
26445SOL    HW284183   9.187   6.154   6.748
26446SOL     OW84184   7.700   7.150   7.330
26446SOL    HW184185   7.670   7.207   7.406
26446SOL    HW284186   7.693   7.053   7.356
26447SOL     OW84187   8.119   6.050   6.855
26447SOL    HW184188   8.085   5.961   6.825
26447SOL    HW284189   8.145   6.104   6.775
26448SOL     OW84190   8.378   7.264   7.051
26448SOL    HW184191   8.354   7.246   6.956
26448SOL    HW284192   8.408   7.358   7.061
26449SOL     OW84193   7.921   6.086   5.777
26449SOL    HW184194   7.982   6.166   5.781
26449SOL    HW284195   7.826   6.117   5.784
26450SOL     OW84196   7.607   6.723   7.052
26450SOL    HW184197   7.629   6.662   7.128
26450SOL    HW284198   7.617   6.674   6.966
26451SOL     OW84199   8.795   6.645   6.820
26451SOL    HW184200   8.819   6.582   6.746
26451SOL    HW284201   8.705   6.685   6.802
26452SOL     OW84202   8.750   6.441   5.895
26452SOL    HW184203   8.664   6.410   5.937
26452SOL    HW284204   8.746   6.427   5.796
26453SOL     OW84205   9.207   7.333   6.740
26453SOL    HW184206   9.268   7.363   6.667
26453SOL    HW284207   9.169   7.244   6.718
26454SOL     OW84208   8.700   7.317   6.714
26454SOL    HW184209   8.784   7.322   6.660
26454SOL    HW284210   8.677   7.221   6.732
26455SOL     OW84211   7.531   6.844   6.608
26455SOL    HW184212   7.526   6.843   6.708
26455SOL    HW284213   7.448   6.803   6.570
26456SOL     OW84214   9.174   5.721   6.109
26456SOL    HW184215   9.247   5.704   6.042
26456SOL    HW284216   9.143   5.634   6.147
26457SOL     OW84217   8.836   7.159   6.063
26457SOL    HW184218   8.903   7.171   5.989
26457SOL    HW284219   8.796   7.248   6.086
26458SOL     OW84220   7.578   7.380   7.437
26458SOL    HW184221   7.537   7.306   7.490
26458SOL    HW284222   7.642   7.431   7.495
26459SOL     OW84223   8.728   6.513   6.258
26459SOL    HW184224   8.788   6.432   6.260
26459SOL    HW284225   8.768   6.582   6.198
26460SOL     OW84226   8.120   7.202   5.740
26460SOL    HW184227   8.129   7.212   5.641
26460SOL    HW284228   8.080   7.113   5.761
26461SOL     OW84229   9.098   7.306   6.980
26461SOL    HW184230   9.151   7.316   6.896
26461SOL    HW284231   9.071   7.396   7.014
26462SOL     OW84232   9.289   5.761   6.549
26462SOL    HW184233   9.328   5.676   6.513
26462SOL    HW284234   9.191   5.763   6.530
26463SOL     OW84235   7.711   5.912   6.306
26463SOL    HW184236   7.632   5.963   6.272
26463SOL    HW284237   7.702   5.897   6.404
26464SOL     OW84238   8.642   7.198   5.617
26464SOL    HW184239   8.648   7.105   5.654
26464SOL    HW284240   8.583   7.198   5.537
26465SOL     OW84241   8.364   6.496   5.877
26465SOL    HW184242   8.427   6.534   5.809
26465SOL    HW284243   8.404   6.413   5.916
26466SOL     OW84244   8.952   7.193   5.630
26466SOL    HW184245   8.860   7.230   5.637
26466SOL    HW284246   8.990   7.213   5.540
26467SOL     OW84247   8.487   6.684   6.282
26467SOL    HW184248   8.417   6.637   6.336
26467SOL    HW284249   8.546   6.616   6.239
26468SOL     OW84250   8.462   5.822   6.557
26468SOL    HW184251   8.454   5.786   6.464
26468SOL    HW284252   8.460   5.746   6.622
26469SOL     OW84253   8.038   7.073   6.077
26469SOL    HW184254   8.080   7.015   6.007
26469SOL    HW284255   7.994   7.152   6.033
26470SOL     OW84256   9.157   5.971   6.967
26470SOL    HW184257   9.230   6.040   6.971
26470SOL    HW284258   9.185   5.896   6.908
26471SOL     OW84259   7.703   6.934   5.876
26471SOL    HW184260   7.607   6.935   5.849
26471SOL    HW284261   7.715   6.987   5.960
26472SOL     OW84262   7.553   6.599   7.312
26472SOL    HW184263   7.476   6.566   7.366
26472SOL    HW284264   7.638   6.569   7.354
26473SOL     OW84265   8.120   5.789   7.075
26473SOL    HW184266   8.210   5.773   7.035
26473SOL    HW284267   8.128   5.794   7.174
26474SOL     OW84268   7.523   5.931   5.619
26474SOL    HW184269   7.431   5.903   5.590
26474SOL    HW284270   7.554   6.008   5.563
26475SOL     OW84271   8.888   6.442   6.984
26475SOL    HW184272   8.831   6.494   6.921
26475SOL    HW284273   8.984   6.454   6.960
26476SOL     OW84274   7.520   5.752   5.904
26476SOL    HW184275   7.503   5.835   5.850
26476SOL    HW284276   7.610   5.715   5.882
26477SOL     OW84277   8.631   6.921   5.705
26477SOL    HW184278   8.532   6.910   5.707
26477SOL    HW284279   8.665   6.936   5.798
26478SOL     OW84280   8.061   6.428   7.017
26478SOL    HW184281   8.117   6.509   7.000
26478SOL    HW284282   8.120   6.348   7.020
26479SOL     OW84283   8.941   7.353   6.545
26479SOL    HW184284   8.974   7.417   6.476
26479SOL    HW284285   9.007   7.347   6.620
26480SOL     OW84286   8.164   6.151   7.294
26480SOL    HW184287   8.183   6.216   7.368
26480SOL    HW284288   8.224   6.071   7.303
26481SOL     OW84289   8.898   6.806   7.219
26481SOL    HW184290   8.889   6.796   7.318
26481SOL    HW284291   8.994   6.799   7.193
26482SOL     OW84292   7.838   7.327   7.146
26482SOL    HW184293   7.747   7.368   7.144
26482SOL    HW284294   7.831   7.233   7.178
26483SOL     OW84295   9.122   6.469   6.840
26483SOL    HW184296   9.095   6.380   6.803
26483SOL    HW284297   9.123   6.537   6.767
26484SOL     OW84298   8.673   5.911   6.035
26484SOL    HW184299   8.738   5.837   6.024
26484SOL    HW284300   8.693   5.961   6.119
26485SOL     OW84301   9.225   5.928   7.228
26485SOL    HW184302   9.208   5.959   7.134
26485SOL    HW284303   9.141   5.891   7.266
26486SOL     OW84304   9.178   6.520   7.103
26486SOL    HW184305   9.216   6.611   7.118
26486SOL    HW284306   9.170   6.503   7.004
26487SOL     OW84307   8.307   6.960   5.602
26487SOL    HW184308   8.261   6.975   5.690
26487SOL    HW284309   8.351   7.045   5.572
26488SOL     OW84310   8.109   7.376   6.539
26488SOL    HW184311   8.063   7.464   6.526
26488SOL    HW284312   8.208   7.388   6.532
26489SOL     OW84313   8.307   6.542   6.447
26489SOL    HW184314   8.361   6.473   6.495
26489SOL    HW284315   8.275   6.611   6.513
26490SOL     OW84316   8.531   6.570   5.673
26490SOL    HW184317   8.508   6.623   5.591
26490SOL    HW284318   8.612   6.514   5.654
26491SOL     OW84319   9.309   7.155   6.437
26491SOL    HW184320   9.238   7.143   6.367
26491SOL    HW284321   9.310   7.076   6.497
26492SOL     OW84322   7.669   6.900   7.430
26492SOL    HW184323   7.604   6.827   7.409
26492SOL    HW284324   7.673   6.914   7.528
26493SOL     OW84325   9.272   5.778   6.813
26493SOL    HW184326   9.268   5.688   6.857
26493SOL    HW284327   9.275   5.767   6.714
26494SOL     OW84328   7.876   6.010   6.106
26494SOL    HW184329   7.906   5.938   6.044
26494SOL    HW284330   7.837   5.970   6.189
26495SOL     OW84331   9.153   7.073   6.690
26495SOL    HW184332   9.060   7.048   6.663
26495SOL    HW284333   9.179   7.023   6.772
26496SOL     OW84334   7.765   6.133   6.866
26496SOL    HW184335   7.803   6.074   6.938
26496SOL    HW284336   7.805   6.107   6.778
26497SOL     OW84337   8.872   5.800   6.698
26497SOL    HW184338   8.924   5.735   6.753
26497SOL    HW284339   8.823   5.863   6.759
26498SOL     OW84340   8.449   5.620   6.740
26498SOL    HW184341   8.386   5.548   6.709
26498SOL    HW284342   8.542   5.584   6.740
26499SOL     OW84343   8.218   6.916   5.887
26499SOL    HW184344   8.172   6.829   5.904
26499SOL    HW284345   8.309   6.913   5.928
26500SOL     OW84346   8.800   5.638   5.754
26500SOL    HW184347   8.835   5.597   5.670
26500SOL    HW284348   8.710   5.600   5.774
26501SOL     OW84349   8.748   6.039   6.277
26501SOL    HW184350   8.689   6.119   6.281
26501SOL    HW284351   8.763   6.004   6.370
26502SOL     OW84352   9.041   5.807   6.468
26502SOL    HW184353   8.957   5.806   6.522
26502SOL    HW284354   9.043   5.890   6.412
26503SOL     OW84355   7.487   6.663   5.886
26503SOL    HW184356   7.586   6.652   5.877
26503SOL    HW284357   7.447   6.577   5.918
26504SOL     OW84358   7.678   6.214   7.561
26504SOL    HW184359   7.585   6.212   7.598
26504SOL    HW284360   7.679   6.175   7.469
26505SOL     OW84361   7.673   5.861   8.444
26505SOL    HW184362   7.708   5.844   8.536
26505SOL    HW284363   7.585   5.816   8.432
26506SOL     OW84364   7.467   5.954   8.095
26506SOL    HW184365   7.385   5.997   8.134
26506SOL    HW284366   7.439   5.881   8.032
26507SOL     OW84367   8.017   6.861   8.613
26507SOL    HW184368   7.924   6.854   8.576
26507SOL    HW284369   8.028   6.950   8.657
26508SOL     OW84370   9.003   7.097   8.151
26508SOL    HW184371   8.946   7.081   8.232
26508SOL    HW284372   8.944   7.107   8.071
26509SOL     OW84373   8.583   6.289   8.165
26509SOL    HW184374   8.640   6.367   8.140
26509SOL    HW284375   8.523   6.315   8.241
26510SOL     OW84376   9.203   6.193   7.679
26510SOL    HW184377   9.191   6.180   7.580
26510SOL    HW284378   9.173   6.112   7.728
26511SOL     OW84379   8.216   6.730   8.471
26511SOL    HW184380   8.138   6.747   8.531
26511SOL    HW284381   8.250   6.817   8.435
26512SOL     OW84382   8.298   6.384   9.271
26512SOL    HW184383   8.294   6.460   9.336
26512SOL    HW284384   8.320   6.420   9.180
26513SOL     OW84385   8.134   6.747   9.251
26513SOL    HW184386   8.194   6.826   9.265
26513SOL    HW284387   8.048   6.778   9.210
26514SOL     OW84388   7.783   7.021   8.509
26514SOL    HW184389   7.705   6.990   8.456
26514SOL    HW284390   7.841   7.079   8.452
26515SOL     OW84391   8.908   7.091   8.787
26515SOL    HW184392   8.932   7.185   8.813
26515SOL    HW284393   8.892   7.037   8.869
26516SOL     OW84394   7.886   5.978   8.947
26516SOL    HW184395   7.968   5.922   8.956
26516SOL    HW284396   7.805   5.920   8.951
26517SOL     OW84397   9.051   6.033   8.185
26517SOL    HW184398   8.977   6.079   8.135
26517SOL    HW284399   9.102   6.101   8.238
26518SOL     OW84400   7.679   7.299   7.931
26518SOL    HW184401   7.713   7.376   7.985
26518SOL    HW284402   7.723   7.299   7.841
26519SOL     OW84403   8.575   6.927   9.138
26519SOL    HW184404   8.622   6.927   9.226
26519SOL    HW284405   8.527   6.840   9.127
26520SOL     OW84406   7.678   7.020   7.986
26520SOL    HW184407   7.652   7.116   7.986
26520SOL    HW284408   7.607   6.966   8.031
26521SOL     OW84409   7.688   6.677   8.334
26521SOL    HW184410   7.702   6.593   8.386
26521SOL    HW284411   7.633   6.741   8.389
26522SOL     OW84412   8.068   7.372   8.887
26522SOL    HW184413   7.976   7.355   8.922
26522SOL    HW284414   8.096   7.464   8.913
26523SOL     OW84415   8.054   6.550   7.571
26523SOL    HW184416   8.061   6.634   7.517
26523SOL    HW284417   8.100   6.563   7.659
26524SOL     OW84418   9.042   5.700   8.928
26524SOL    HW184419   9.024   5.767   8.856
26524SOL    HW284420   9.039   5.746   9.017
26525SOL     OW84421   7.570   6.229   8.011
26525SOL    HW184422   7.525   6.141   8.028
26525SOL    HW284423   7.569   6.283   8.095
26526SOL     OW84424   9.290   7.353   7.807
26526SOL    HW184425   9.344   7.324   7.887
26526SOL    HW284426   9.320   7.443   7.778
26527SOL     OW84427   7.475   7.182   7.565
26527SOL    HW184428   7.456   7.086   7.586
26527SOL    HW284429   7.442   7.240   7.640
26528SOL     OW84430   9.137   6.508   8.060
26528SOL    HW184431   9.232   6.479   8.068
26528SOL    HW284432   9.129   6.573   7.985
26529SOL     OW84433   9.089   6.694   7.880
26529SOL    HW184434   9.175   6.696   7.828
26529SOL    HW284435   9.103   6.741   7.968
26530SOL     OW84436   7.561   6.323   9.045
26530SOL    HW184437   7.649   6.310   9.090
26530SOL    HW284438   7.548   6.420   9.023
26531SOL     OW84439   8.061   6.951   8.174
26531SOL    HW184440   8.012   6.864   8.183
26531SOL    HW284441   8.038   6.994   8.087
26532SOL     OW84442   8.741   6.814   8.871
26532SOL    HW184443   8.778   6.741   8.813
26532SOL    HW284444   8.793   6.819   8.956
26533SOL     OW84445   8.257   5.590   7.950
26533SOL    HW184446   8.297   5.681   7.941
26533SOL    HW284447   8.157   5.598   7.956
26534SOL     OW84448   7.645   6.562   8.712
26534SOL    HW184449   7.734   6.517   8.698
26534SOL    HW284450   7.572   6.497   8.693
26535SOL     OW84451   8.973   6.585   7.638
26535SOL    HW184452   8.910   6.509   7.651
26535SOL    HW284453   9.021   6.603   7.724
26536SOL     OW84454   8.635   7.378   9.064
26536SOL    HW184455   8.659   7.438   8.988
26536SOL    HW284456   8.642   7.283   9.034
26537SOL     OW84457   7.765   5.837   9.249
26537SOL    HW184458   7.836   5.908   9.255
26537SOL    HW284459   7.677   5.876   9.277
26538SOL     OW84460   8.914   7.003   8.401
26538SOL    HW184461   8.855   7.009   8.481
26538SOL    HW284462   8.899   6.915   8.355
26539SOL     OW84463   9.115   7.300   8.020
26539SOL    HW184464   9.074   7.277   7.932
26539SOL    HW284465   9.097   7.226   8.085
26540SOL     OW84466   8.046   6.315   7.718
26540SOL    HW184467   8.070   6.384   7.650
26540SOL    HW284468   7.968   6.348   7.772
26541SOL     OW84469   8.729   5.931   8.392
26541SOL    HW184470   8.643   5.881   8.379
26541SOL    HW284471   8.791   5.877   8.448
26542SOL     OW84472   9.024   7.248   7.755
26542SOL    HW184473   9.113   7.294   7.758
26542SOL    HW284474   9.003   7.224   7.660
26543SOL     OW84475   8.255   6.191   8.913
26543SOL    HW184476   8.208   6.188   9.002
26543SOL    HW284477   8.204   6.136   8.847
26544SOL     OW84478   8.842   6.055   9.122
26544SOL    HW184479   8.822   6.098   9.210
26544SOL    HW284480   8.920   5.993   9.131
26545SOL     OW84481   8.421   6.476   9.020
26545SOL    HW184482   8.467   6.392   8.991
26545SOL    HW284483   8.365   6.510   8.945
26546SOL     OW84484   8.439   5.996   8.690
26546SOL    HW184485   8.362   6.030   8.744
26546SOL    HW284486   8.405   5.945   8.611
26547SOL     OW84487   8.489   6.287   7.877
26547SOL    HW184488   8.515   6.283   7.973
26547SOL    HW284489   8.404   6.236   7.863
26548SOL     OW84490   7.524   6.397   8.237
26548SOL    HW184491   7.623   6.385   8.246
26548SOL    HW284492   7.500   6.492   8.258
26549SOL     OW84493   7.578   7.407   9.019
26549SOL    HW184494   7.568   7.392   9.118
26549SOL    HW284495   7.492   7.443   8.983
26550SOL     OW84496   8.313   5.934   7.643
26550SOL    HW184497   8.372   5.997   7.594
26550SOL    HW284498   8.332   5.840   7.614
26551SOL     OW84499   9.167   6.171   9.279
26551SOL    HW184500   9.141   6.260   9.243
26551SOL    HW284501   9.165   6.103   9.206
26552SOL     OW84502   8.810   6.730   7.993
26552SOL    HW184503   8.893   6.701   7.945
26552SOL    HW284504   8.761   6.797   7.937
26553SOL     OW84505   7.998   5.782   8.333
26553SOL    HW184506   7.993   5.777   8.433
26553SOL    HW284507   8.000   5.878   8.304
26554SOL     OW84508   8.456   7.042   7.925
26554SOL    HW184509   8.410   7.114   7.873
26554SOL    HW284510   8.452   7.062   8.023
26555SOL     OW84511   7.799   7.387   8.301
26555SOL    HW184512   7.849   7.301   8.307
26555SOL    HW284513   7.864   7.464   8.298
26556SOL     OW84514   9.243   6.652   8.321
26556SOL    HW184515   9.181   6.637   8.245
26556SOL    HW284516   9.191   6.663   8.406
26557SOL     OW84517   8.675   7.136   8.954
26557SOL    HW184518   8.681   7.059   9.018
26557SOL    HW284519   8.623   7.110   8.874
26558SOL     OW84520   7.769   6.529   7.690
26558SOL    HW184521   7.851   6.568   7.648
26558SOL    HW284522   7.742   6.447   7.641
26559SOL     OW84523   7.909   6.852   9.175
26559SOL    HW184524   7.859   6.853   9.089
26559SOL    HW284525   7.846   6.834   9.251
26560SOL     OW84526   8.559   7.362   7.685
26560SOL    HW184527   8.499   7.300   7.735
26560SOL    HW284528   8.590   7.318   7.600
26561SOL     OW84529   7.650   5.871   8.946
26561SOL    HW184530   7.570   5.931   8.933
26561SOL    HW284531   7.640   5.822   9.032
26562SOL     OW84532   9.080   6.963   7.529
26562SOL    HW184533   9.048   7.057   7.519
26562SOL    HW284534   9.004   6.900   7.517
26563SOL     OW84535   7.912   7.329   7.771
26563SOL    HW184536   7.945   7.368   7.857
26563SOL    HW284537   7.988   7.322   7.706
26564SOL     OW84538   8.848   5.693   7.874
26564SOL    HW184539   8.824   5.656   7.784
26564SOL    HW284540   8.947   5.709   7.878
26565SOL     OW84541   7.697   7.371   8.689
26565SOL    HW184542   7.754   7.306   8.739
26565SOL    HW284543   7.681   7.338   8.596
26566SOL     OW84544   8.388   7.284   8.352
26566SOL    HW184545   8.468   7.227   8.373
26566SOL    HW284546   8.339   7.244   8.275
26567SOL     OW84547   8.995   5.808   9.177
26567SOL    HW184548   8.990   5.845   9.269
26567SOL    HW284549   8.923   5.739   9.165
26568SOL     OW84550   8.062   5.708   7.565
26568SOL    HW184551   8.160   5.686   7.572
26568SOL    HW284552   8.031   5.691   7.472
26569SOL     OW84553   8.229   5.850   9.197
26569SOL    HW184554   8.296   5.789   9.240
26569SOL    HW284555   8.156   5.869   9.262
26570SOL     OW84556   8.336   7.100   8.643
26570SOL    HW184557   8.313   7.075   8.549
26570SOL    HW284558   8.397   7.031   8.682
26571SOL     OW84559   8.799   6.176   8.881
26571SOL    HW184560   8.827   6.133   8.966
26571SOL    HW284561   8.824   6.272   8.882
26572SOL     OW84562   8.251   6.988   8.372
26572SOL    HW184563   8.341   7.002   8.330
26572SOL    HW284564   8.180   6.990   8.301
26573SOL     OW84565   8.370   6.089   8.347
26573SOL    HW184566   8.345   6.080   8.251
26573SOL    HW284567   8.418   6.007   8.378
26574SOL     OW84568   7.987   5.650   7.960
26574SOL    HW184569   7.906   5.651   8.018
26574SOL    HW284570   7.990   5.733   7.905
26575SOL     OW84571   8.882   6.774   7.489
26575SOL    HW184572   8.914   6.698   7.546
26575SOL    HW284573   8.790   6.801   7.519
26576SOL     OW84574   7.745   5.621   7.619
26576SOL    HW184575   7.794   5.705   7.598
26576SOL    HW284576   7.807   5.556   7.664
26577SOL     OW84577   8.383   5.822   7.928
26577SOL    HW184578   8.335   5.863   7.850
26577SOL    HW284579   8.482   5.820   7.909
26578SOL     OW84580   8.524   6.269   8.912
26578SOL    HW184581   8.444   6.208   8.915
26578SOL    HW284582   8.605   6.216   8.888
26579SOL     OW84583   8.675   7.156   8.241
26579SOL    HW184584   8.696   7.230   8.176
26579SOL    HW284585   8.743   7.156   8.314
26580SOL     OW84586   8.719   7.383   8.039
26580SOL    HW184587   8.763   7.447   7.975
26580SOL    HW284588   8.669   7.435   8.109
26581SOL     OW84589   8.480   6.135   7.464
26581SOL    HW184590   8.439   6.217   7.425
26581SOL    HW284591   8.544   6.161   7.537
26582SOL     OW84592   7.526   6.142   8.834
26582SOL    HW184593   7.618   6.141   8.793
26582SOL    HW284594   7.520   6.216   8.901
26583SOL     OW84595   8.009   5.808   8.595
26583SOL    HW184596   8.047   5.724   8.632
26583SOL    HW284597   7.921   5.827   8.639
26584SOL     OW84598   8.314   6.040   8.090
26584SOL    HW184599   8.282   6.112   8.028
26584SOL    HW284600   8.338   5.959   8.037
26585SOL     OW84601   8.465   5.625   8.201
26585SOL    HW184602   8.393   5.630   8.132
26585SOL    HW284603   8.441   5.556   8.270
26586SOL     OW84604   8.877   6.759   8.315
26586SOL    HW184605   8.822   6.675   8.308
26586SOL    HW284606   8.903   6.788   8.223
26587SOL     OW84607   8.914   6.176   8.440
26587SOL    HW184608   8.884   6.081   8.447
26587SOL    HW284609   8.987   6.192   8.506
26588SOL     OW84610   9.305   6.419   7.825
26588SOL    HW184611   9.347   6.355   7.889
26588SOL    HW284612   9.267   6.368   7.747
26589SOL     OW84613   7.936   6.971   7.622
26589SOL    HW184614   7.849   6.956   7.669
26589SOL    HW284615   7.919   6.997   7.527
26590SOL     OW84616   9.112   6.866   8.105
26590SOL    HW184617   9.211   6.874   8.119
26590SOL    HW284618   9.067   6.950   8.136
26591SOL     OW84619   8.838   6.161   7.526
26591SOL    HW184620   8.784   6.140   7.607
26591SOL    HW284621   8.929   6.120   7.535
26592SOL     OW84622   7.975   5.842   7.776
26592SOL    HW184623   8.002   5.783   7.701
26592SOL    HW284624   7.975   5.937   7.745
26593SOL     OW84625   9.202   6.809   9.036
26593SOL    HW184626   9.293   6.770   9.023
26593SOL    HW284627   9.210   6.905   9.060
26594SOL     OW84628   8.512   6.933   8.788
26594SOL    HW184629   8.432   6.910   8.843
26594SOL    HW284630   8.595   6.907   8.837
26595SOL     OW84631   9.040   7.215   9.073
26595SOL    HW184632   9.067   7.249   8.983
26595SOL    HW284633   9.119   7.177   9.119
26596SOL     OW84634   8.559   6.781   8.548
26596SOL    HW184635   8.519   6.825   8.629
26596SOL    HW284636   8.518   6.818   8.465
26597SOL     OW84637   9.086   6.685   8.527
26597SOL    HW184638   9.091   6.766   8.586
26597SOL    HW284639   9.000   6.687   8.476
26598SOL     OW84640   8.363   5.675   8.850
26598SOL    HW184641   8.388   5.655   8.755
26598SOL    HW284642   8.435   5.731   8.892
26599SOL     OW84643   8.428   6.702   9.167
26599SOL    HW184644   8.329   6.708   9.177
26599SOL    HW284645   8.451   6.622   9.111
26600SOL     OW84646   7.858   6.399   8.699
26600SOL    HW184647   7.944   6.411   8.749
26600SOL    HW284648   7.816   6.312   8.726
26601SOL     OW84649   8.722   5.972   8.710
26601SOL    HW184650   8.743   6.046   8.774
26601SOL    HW284651   8.633   5.989   8.667
26602SOL     OW84652   7.512   7.150   8.779
26602SOL    HW184653   7.466   7.232   8.745
26602SOL    HW284654   7.610   7.169   8.788
26603SOL     OW84655   8.014   6.123   8.313
26603SOL    HW184656   8.026   6.189   8.239
26603SOL    HW284657   8.060   6.157   8.396
26604SOL     OW84658   8.700   6.934   7.836
26604SOL    HW184659   8.750   7.011   7.876
26604SOL    HW284660   8.605   6.936   7.868
26605SOL     OW84661   8.720   7.031   8.590
26605SOL    HW184662   8.767   7.044   8.677
26605SOL    HW284663   8.654   6.957   8.599
26606SOL     OW84664   9.030   6.225   7.920
26606SOL    HW184665   8.999   6.286   7.993
26606SOL    HW284666   9.080   6.277   7.851
26607SOL     OW84667   7.802   7.096   8.777
26607SOL    HW184668   7.781   7.052   8.690
26607SOL    HW284669   7.899   7.122   8.780
26608SOL     OW84670   7.850   6.337   9.046
26608SOL    HW184671   7.918   6.392   8.999
26608SOL    HW284672   7.890   6.249   9.073
26609SOL     OW84673   9.035   6.365   9.118
26609SOL    HW184674   8.943   6.403   9.113
26609SOL    HW284675   9.095   6.412   9.053
26610SOL     OW84676   7.952   5.636   9.188
26610SOL    HW184677   7.910   5.579   9.118
26610SOL    HW284678   7.886   5.705   9.220
26611SOL     OW84679   8.021   6.456   8.477
26611SOL    HW184680   8.065   6.545   8.468
26611SOL    HW284681   7.958   6.456   8.554
26612SOL     OW84682   8.808   6.448   8.493
26612SOL    HW184683   8.733   6.448   8.427
26612SOL    HW284684   8.845   6.356   8.502
26613SOL     OW84685   8.657   6.111   7.723
26613SOL    HW184686   8.670   6.027   7.777
26613SOL    HW284687   8.628   6.185   7.783
26614SOL     OW84688   7.755   5.799   8.679
26614SOL    HW184689   7.732   5.836   8.769
26614SOL    HW284690   7.725   5.704   8.673
26615SOL     OW84691   7.485   6.896   8.730
26615SOL    HW184692   7.538   6.847   8.798
26615SOL    HW284693   7.507   6.994   8.735
26616SOL     OW84694   8.180   6.220   8.512
26616SOL    HW184695   8.239   6.194   8.436
26616SOL    HW284696   8.152   6.316   8.501
26617SOL     OW84697   9.176   6.521   9.302
26617SOL    HW184698   9.130   6.514   9.213
26617SOL    HW284699   9.114   6.565   9.368
26618SOL     OW84700   7.755   5.649   8.066
26618SOL    HW184701   7.744   5.743   8.099
26618SOL    HW284702   7.750   5.586   8.143
26619SOL     OW84703   9.070   5.953   7.822
26619SOL    HW184704   9.072   5.877   7.886
26619SOL    HW284705   9.022   6.030   7.862
26620SOL     OW84706   8.471   6.352   8.414
26620SOL    HW184707   8.486   6.373   8.510
26620SOL    HW284708   8.441   6.257   8.405
26621SOL     OW84709   8.428   7.159   9.148
26621SOL    HW184710   8.408   7.203   9.060
26621SOL    HW284711   8.467   7.068   9.132
26622SOL     OW84712   9.307   7.104   9.053
26622SOL    HW184713   9.321   7.131   8.958
26622SOL    HW284714   9.390   7.126   9.106
26623SOL     OW84715   7.798   6.484   9.252
26623SOL    HW184716   7.874   6.528   9.300
26623SOL    HW284717   7.833   6.437   9.170
26624SOL     OW84718   8.988   5.860   7.573
26624SOL    HW184719   8.927   5.785   7.596
26624SOL    HW284720   9.010   5.912   7.656
26625SOL     OW84721   8.516   6.919   8.297
26625SOL    HW184722   8.523   6.835   8.242
26625SOL    HW284723   8.578   6.988   8.261
26626SOL     OW84724   7.787   6.095   8.454
26626SOL    HW184725   7.735   6.012   8.437
26626SOL    HW284726   7.864   6.100   8.390
26627SOL     OW84727   8.586   5.966   9.126
26627SOL    HW184728   8.541   6.029   9.190
26627SOL    HW284729   8.679   5.997   9.109
26628SOL     OW84730   7.456   6.912   7.648
26628SOL    HW184731   7.363   6.933   7.617
26628SOL    HW284732   7.466   6.813   7.661
26629SOL     OW84733   7.536   7.387   8.375
26629SOL    HW184734   7.494   7.301   8.348
26629SOL    HW284735   7.630   7.390   8.341
26630SOL     OW84736   7.952   7.154   8.358
26630SOL    HW184737   8.018   7.228   8.367
26630SOL    HW284738   7.996   7.075   8.316
26631SOL     OW84739   8.450   6.382   8.686
26631SOL    HW184740   8.491   6.350   8.772
26631SOL    HW284741   8.354   6.355   8.683
26632SOL     OW84742   7.488   6.130   8.562
26632SOL    HW184743   7.573   6.097   8.521
26632SOL    HW284744   7.501   6.145   8.660
26633SOL     OW84745   7.637   6.106   9.170
26633SOL    HW184746   7.696   6.066   9.100
26633SOL    HW284747   7.579   6.177   9.129
26634SOL     OW84748   8.817   6.536   9.108
26634SOL    HW184749   8.856   6.625   9.128
26634SOL    HW284750   8.827   6.516   9.011
26635SOL     OW84751   8.263   6.158   7.773
26635SOL    HW184752   8.270   6.069   7.727
26635SOL    HW284753   8.169   6.192   7.765
26636SOL     OW84754   9.105   6.190   8.654
26636SOL    HW184755   9.067   6.121   8.716
26636SOL    HW284756   9.187   6.154   8.610
26637SOL     OW84757   7.700   7.150   9.192
26637SOL    HW184758   7.670   7.207   9.268
26637SOL    HW284759   7.693   7.053   9.218
26638SOL     OW84760   8.119   6.050   8.717
26638SOL    HW184761   8.085   5.961   8.687
26638SOL    HW284762   8.145   6.104   8.637
26639SOL     OW84763   8.378   7.264   8.913
26639SOL    HW184764   8.354   7.246   8.818
26639SOL    HW284765   8.408   7.358   8.923
26640SOL     OW84766   7.921   6.086   7.639
26640SOL    HW184767   7.982   6.166   7.643
26640SOL    HW284768   7.826   6.117   7.646
26641SOL     OW84769   7.607   6.723   8.914
26641SOL    HW184770   7.629   6.662   8.990
26641SOL    HW284771   7.617   6.674   8.828
26642SOL     OW84772   8.795   6.645   8.682
26642SOL    HW184773   8.819   6.582   8.608
26642SOL    HW284774   8.705   6.685   8.664
26643SOL     OW84775   8.750   6.441   7.757
26643SOL    HW184776   8.664   6.410   7.799
26643SOL    HW284777   8.746   6.427   7.658
26644SOL     OW84778   9.207   7.333   8.602
26644SOL    HW184779   9.268   7.363   8.529
26644SOL    HW284780   9.169   7.244   8.580
26645SOL     OW84781   8.700   7.317   8.576
26645SOL    HW184782   8.784   7.322   8.522
26645SOL    HW284783   8.677   7.221   8.594
26646SOL     OW84784   7.531   6.844   8.470
26646SOL    HW184785   7.526   6.843   8.570
26646SOL    HW284786   7.448   6.803   8.432
26647SOL     OW84787   9.174   5.721   7.971
26647SOL    HW184788   9.247   5.704   7.904
26647SOL    HW284789   9.143   5.634   8.009
26648SOL     OW84790   8.836   7.159   7.925
26648SOL    HW184791   8.903   7.171   7.851
26648SOL    HW284792   8.796   7.248   7.948
26649SOL     OW84793   7.578   7.380   9.299
26649SOL    HW184794   7.537   7.306   9.352
26649SOL    HW284795   7.642   7.431   9.357
26650SOL     OW84796   8.728   6.513   8.120
26650SOL    HW184797   8.788   6.432   8.122
26650SOL    HW284798   8.768   6.582   8.060
26651SOL     OW84799   8.120   7.202   7.602
26651SOL    HW184800   8.129   7.212   7.503
26651SOL    HW284801   8.080   7.113   7.623
26652SOL     OW84802   9.098   7.306   8.842
26652SOL    HW184803   9.151   7.316   8.758
26652SOL    HW284804   9.071   7.396   8.876
26653SOL     OW84805   9.289   5.761   8.411
26653SOL    HW184806   9.328   5.676   8.375
26653SOL    HW284807   9.191   5.763   8.392
26654SOL     OW84808   7.711   5.912   8.168
26654SOL    HW184809   7.632   5.963   8.134
26654SOL    HW284810   7.702   5.897   8.266
26655SOL     OW84811   8.642   7.198   7.479
26655SOL    HW184812   8.648   7.105   7.516
26655SOL    HW284813   8.583   7.198   7.399
26656SOL     OW84814   8.270   6.588   8.820
26656SOL    HW184815   8.310   6.587   8.728
26656SOL    HW284816   8.280   6.680   8.860
26657SOL     OW84817   8.364   6.496   7.739
26657SOL    HW184818   8.427   6.534   7.671
26657SOL    HW284819   8.404   6.413   7.778
26658SOL     OW84820   8.952   7.193   7.492
26658SOL    HW184821   8.860   7.230   7.499
26658SOL    HW284822   8.990   7.213   7.402
26659SOL     OW84823   7.820   6.874   8.938
26659SOL    HW184824   7.807   6.967   8.904
26659SOL    HW284825   7.736   6.822   8.925
26660SOL     OW84826   9.062   6.878   8.737
26660SOL    HW184827   9.122   6.881   8.817
26660SOL    HW284828   8.987   6.942   8.750
26661SOL     OW84829   8.487   6.684   8.144
26661SOL    HW184830   8.417   6.637   8.198
26661SOL    HW284831   8.546   6.616   8.101
26662SOL     OW84832   8.462   5.822   8.419
26662SOL    HW184833   8.454   5.786   8.326
26662SOL    HW284834   8.460   5.746   8.484
26663SOL     OW84835   8.038   7.073   7.939
26663SOL    HW184836   8.080   7.015   7.869
26663SOL    HW284837   7.994   7.152   7.895
26664SOL     OW84838   9.157   5.971   8.829
26664SOL    HW184839   9.230   6.040   8.833
26664SOL    HW284840   9.185   5.896   8.770
26665SOL     OW84841   7.703   6.934   7.738
26665SOL    HW184842   7.607   6.935   7.711
26665SOL    HW284843   7.715   6.987   7.822
26666SOL     OW84844   7.553   6.599   9.174
26666SOL    HW184845   7.476   6.566   9.228
26666SOL    HW284846   7.638   6.569   9.216
26667SOL     OW84847   8.120   5.789   8.937
26667SOL    HW184848   8.210   5.773   8.897
26667SOL    HW284849   8.128   5.794   9.036
26668SOL     OW84850   7.523   5.931   7.481
26668SOL    HW184851   7.431   5.903   7.452
26668SOL    HW284852   7.554   6.008   7.425
26669SOL     OW84853   8.888   6.442   8.846
26669SOL    HW184854   8.831   6.494   8.783
26669SOL    HW284855   8.984   6.454   8.822
26670SOL     OW84856   7.520   5.752   7.766
26670SOL    HW184857   7.503   5.835   7.712
26670SOL    HW284858   7.610   5.715   7.744
26671SOL     OW84859   8.631   6.921   7.567
26671SOL    HW184860   8.532   6.910   7.569
26671SOL    HW284861   8.665   6.936   7.660
26672SOL     OW84862   8.061   6.428   8.879
26672SOL    HW184863   8.117   6.509   8.862
26672SOL    HW284864   8.120   6.348   8.882
26673SOL     OW84865   8.941   7.353   8.407
26673SOL    HW184866   8.974   7.417   8.338
26673SOL    HW284867   9.007   7.347   8.482
26674SOL     OW84868   8.164   6.151   9.156
26674SOL    HW184869   8.183   6.216   9.230
26674SOL    HW284870   8.224   6.071   9.165
26675SOL     OW84871   8.898   6.806   9.081
26675SOL    HW184872   8.889   6.796   9.180
26675SOL    HW284873   8.994   6.799   9.055
26676SOL     OW84874   9.122   6.469   8.702
26676SOL    HW184875   9.095   6.380   8.665
26676SOL    HW284876   9.123   6.537   8.629
26677SOL     OW84877   8.673   5.911   7.897
26677SOL    HW184878   8.738   5.837   7.886
26677SOL    HW284879   8.693   5.961   7.981
26678SOL     OW84880   9.225   5.928   9.090
26678SOL    HW184881   9.208   5.959   8.996
26678SOL    HW284882   9.141   5.891   9.128
26679SOL     OW84883   9.178   6.520   8.965
26679SOL    HW184884   9.216   6.611   8.980
26679SOL    HW284885   9.170   6.503   8.866
26680SOL     OW84886   8.307   6.960   7.464
26680SOL    HW184887   8.261   6.975   7.552
26680SOL    HW284888   8.351   7.045   7.434
26681SOL     OW84889   8.109   7.376   8.401
26681SOL    HW184890   8.063   7.464   8.388
26681SOL    HW284891   8.208   7.388   8.394
26682SOL     OW84892   8.307   6.542   8.309
26682SOL    HW184893   8.361   6.473   8.357
26682SOL    HW284894   8.275   6.611   8.375
26683SOL     OW84895   9.309   7.155   8.299
26683SOL    HW184896   9.238   7.143   8.229
26683SOL    HW284897   9.310   7.076   8.359
26684SOL     OW84898   7.669   6.900   9.292
26684SOL    HW184899   7.604   6.827   9.271
26684SOL    HW284900   7.673   6.914   9.390
26685SOL     OW84901   7.527   6.826   8.101
26685SOL    HW184902   7.526   6.779   8.189
26685SOL    HW284903   7.609   6.798   8.050
26686SOL     OW84904   9.272   5.778   8.675
26686SOL    HW184905   9.268   5.688   8.719
26686SOL    HW284906   9.275   5.767   8.576
26687SOL     OW84907   7.876   6.010   7.968
26687SOL    HW184908   7.906   5.938   7.906
26687SOL    HW284909   7.837   5.970   8.051
26688SOL     OW84910   9.153   7.073   8.552
26688SOL    HW184911   9.060   7.048   8.525
26688SOL    HW284912   9.179   7.023   8.634
26689SOL     OW84913   7.765   6.133   8.728
26689SOL    HW184914   7.803   6.074   8.800
26689SOL    HW284915   7.805   6.107   8.640
26690SOL     OW84916   8.260   7.172   8.135
26690SOL    HW184917   8.292   7.182   8.041
26690SOL    HW284918   8.181   7.110   8.137
26691SOL     OW84919   8.872   5.800   8.560
26691SOL    HW184920   8.924   5.735   8.615
26691SOL    HW284921   8.823   5.863   8.621
26692SOL     OW84922   8.449   5.620   8.602
26692SOL    HW184923   8.386   5.548   8.571
26692SOL    HW284924   8.542   5.584   8.602
26693SOL     OW84925   8.218   6.916   7.749
26693SOL    HW184926   8.172   6.829   7.766
26693SOL    HW284927   8.309   6.913   7.790
26694SOL     OW84928   8.066   7.153   8.732
26694SOL    HW184929   8.061   7.235   8.789
26694SOL    HW284930   8.155   7.150   8.687
26695SOL     OW84931   8.800   5.638   7.616
26695SOL    HW184932   8.835   5.597   7.532
26695SOL    HW284933   8.710   5.600   7.636
26696SOL     OW84934   8.748   6.039   8.139
26696SOL    HW184935   8.689   6.119   8.143
26696SOL    HW284936   8.763   6.004   8.232
26697SOL     OW84937   9.041   5.807   8.330
26697SOL    HW184938   8.957   5.806   8.384
26697SOL    HW284939   9.043   5.890   8.274
26698SOL     OW84940   7.487   6.663   7.748
26698SOL    HW184941   7.586   6.652   7.739
26698SOL    HW284942   7.447   6.577   7.780
26699SOL     OW84943   8.323   7.232   7.785
26699SOL    HW184944   8.246   7.197   7.731
26699SOL    HW284945   8.291   7.303   7.847
26700SOL     OW84946   7.678   6.214   9.423
26700SOL    HW184947   7.585   6.212   9.460
26700SOL    HW284948   7.679   6.175   9.331
26701SOL     OW84949   9.203   6.193   9.541
26701SOL    HW184950   9.191   6.180   9.442
26701SOL    HW284951   9.173   6.112   9.590
26702SOL     OW84952   7.679   7.299   9.793
26702SOL    HW184953   7.713   7.376   9.847
26702SOL    HW284954   7.723   7.299   9.703
26703SOL     OW84955   7.678   7.020   9.848
26703SOL    HW184956   7.652   7.116   9.848
26703SOL    HW284957   7.607   6.966   9.893
26704SOL     OW84958   8.054   6.550   9.433
26704SOL    HW184959   8.061   6.634   9.379
26704SOL    HW284960   8.100   6.563   9.521
26705SOL     OW84961   7.570   6.229   9.873
26705SOL    HW184962   7.525   6.141   9.890
26705SOL    HW284963   7.569   6.283   9.957
26706SOL     OW84964   9.290   7.353   9.669
26706SOL    HW184965   9.344   7.324   9.749
26706SOL    HW284966   9.320   7.443   9.640
26707SOL     OW84967   7.475   7.182   9.427
26707SOL    HW184968   7.456   7.086   9.448
26707SOL    HW284969   7.442   7.240   9.502
26708SOL     OW84970   9.137   6.508   9.922
26708SOL    HW184971   9.232   6.479   9.930
26708SOL    HW284972   9.129   6.573   9.847
26709SOL     OW84973   9.089   6.694   9.742
26709SOL    HW184974   9.175   6.696   9.690
26709SOL    HW284975   9.103   6.741   9.830
26710SOL     OW84976   8.061   6.951  10.036
26710SOL    HW184977   8.012   6.864  10.045
26710SOL    HW284978   8.038   6.994   9.949
26711SOL     OW84979   8.257   5.590   9.812
26711SOL    HW184980   8.297   5.681   9.803
26711SOL    HW284981   8.157   5.598   9.818
26712SOL     OW84982   8.973   6.585   9.500
26712SOL    HW184983   8.910   6.509   9.513
26712SOL    HW284984   9.021   6.603   9.586
26713SOL     OW84985   8.046   6.315   9.580
26713SOL    HW184986   8.070   6.384   9.512
26713SOL    HW284987   7.968   6.348   9.634
26714SOL     OW84988   9.024   7.248   9.617
26714SOL    HW184989   9.113   7.294   9.620
26714SOL    HW284990   9.003   7.224   9.522
26715SOL     OW84991   8.489   6.287   9.739
26715SOL    HW184992   8.515   6.283   9.835
26715SOL    HW284993   8.404   6.236   9.725
26716SOL     OW84994   7.524   6.397  10.099
26716SOL    HW184995   7.623   6.385  10.108
26716SOL    HW284996   7.500   6.492  10.120
26717SOL     OW84997   8.313   5.934   9.505
26717SOL    HW184998   8.372   5.997   9.456
26717SOL    HW284999   8.332   5.840   9.476
26718SOL     OW85000   8.810   6.730   9.855
26718SOL    HW185001   8.893   6.701   9.807
26718SOL    HW285002   8.761   6.797   9.799
26719SOL     OW85003   8.456   7.042   9.787
26719SOL    HW185004   8.410   7.114   9.735
26719SOL    HW285005   8.452   7.062   9.885
26720SOL     OW85006   7.799   7.387  10.163
26720SOL    HW185007   7.849   7.301  10.169
26720SOL    HW285008   7.864   7.464  10.160
26721SOL     OW85009   7.769   6.529   9.552
26721SOL    HW185010   7.851   6.568   9.510
26721SOL    HW285011   7.742   6.447   9.503
26722SOL     OW85012   8.559   7.362   9.547
26722SOL    HW185013   8.499   7.300   9.597
26722SOL    HW285014   8.590   7.318   9.462
26723SOL     OW85015   9.080   6.963   9.391
26723SOL    HW185016   9.048   7.057   9.381
26723SOL    HW285017   9.004   6.900   9.379
26724SOL     OW85018   7.912   7.329   9.633
26724SOL    HW185019   7.945   7.368   9.719
26724SOL    HW285020   7.988   7.322   9.568
26725SOL     OW85021   8.848   5.693   9.736
26725SOL    HW185022   8.824   5.656   9.646
26725SOL    HW285023   8.947   5.709   9.740
26726SOL     OW85024   7.830   6.286   9.790
26726SOL    HW185025   7.875   6.196   9.787
26726SOL    HW285026   7.736   6.275   9.823
26727SOL     OW85027   8.062   5.708   9.427
26727SOL    HW185028   8.160   5.686   9.434
26727SOL    HW285029   8.031   5.691   9.334
26728SOL     OW85030   7.987   5.650   9.822
26728SOL    HW185031   7.906   5.651   9.880
26728SOL    HW285032   7.990   5.733   9.767
26729SOL     OW85033   8.882   6.774   9.351
26729SOL    HW185034   8.914   6.698   9.408
26729SOL    HW285035   8.790   6.801   9.381
26730SOL     OW85036   7.745   5.621   9.481
26730SOL    HW185037   7.794   5.705   9.460
26730SOL    HW285038   7.807   5.556   9.526
26731SOL     OW85039   8.383   5.822   9.790
26731SOL    HW185040   8.335   5.863   9.712
26731SOL    HW285041   8.482   5.820   9.771
26732SOL     OW85042   7.907   6.738  10.051
26732SOL    HW185043   7.836   6.711  10.116
26732SOL    HW285044   7.881   6.710   9.958
26733SOL     OW85045   8.719   7.383   9.901
26733SOL    HW185046   8.763   7.447   9.837
26733SOL    HW285047   8.669   7.435   9.971
26734SOL     OW85048   8.480   6.135   9.326
26734SOL    HW185049   8.439   6.217   9.287
26734SOL    HW285050   8.544   6.161   9.399
26735SOL     OW85051   8.314   6.040   9.952
26735SOL    HW185052   8.282   6.112   9.890
26735SOL    HW285053   8.338   5.959   9.899
26736SOL     OW85054   9.305   6.419   9.687
26736SOL    HW185055   9.347   6.355   9.751
26736SOL    HW285056   9.267   6.368   9.609
26737SOL     OW85057   8.838   6.161   9.388
26737SOL    HW185058   8.784   6.140   9.469
26737SOL    HW285059   8.929   6.120   9.397
26738SOL     OW85060   7.975   5.842   9.638
26738SOL    HW185061   8.002   5.783   9.563
26738SOL    HW285062   7.975   5.937   9.607
26739SOL     OW85063   8.153   6.636   9.678
26739SOL    HW185064   8.139   6.643   9.777
26739SOL    HW285065   8.237   6.585   9.660
26740SOL     OW85066   7.815   6.686   9.811
26740SOL    HW185067   7.808   6.769   9.755
26740SOL    HW285068   7.819   6.606   9.751
26741SOL     OW85069   8.700   6.934   9.698
26741SOL    HW185070   8.750   7.011   9.738
26741SOL    HW285071   8.605   6.936   9.730
26742SOL     OW85072   9.030   6.225   9.782
26742SOL    HW185073   8.999   6.286   9.855
26742SOL    HW285074   9.080   6.277   9.713
26743SOL     OW85075   8.657   6.111   9.585
26743SOL    HW185076   8.670   6.027   9.639
26743SOL    HW285077   8.628   6.185   9.645
26744SOL     OW85078   7.755   5.649   9.928
26744SOL    HW185079   7.744   5.743   9.961
26744SOL    HW285080   7.750   5.586  10.005
26745SOL     OW85081   9.070   5.953   9.684
26745SOL    HW185082   9.072   5.877   9.748
26745SOL    HW285083   9.022   6.030   9.724
26746SOL     OW85084   8.988   5.860   9.435
26746SOL    HW185085   8.927   5.785   9.458
26746SOL    HW285086   9.010   5.912   9.518
26747SOL     OW85087   8.751   6.424   9.352
26747SOL    HW185088   8.785   6.331   9.367
26747SOL    HW285089   8.769   6.451   9.257
26748SOL     OW85090   7.456   6.912   9.510
26748SOL    HW185091   7.363   6.933   9.479
26748SOL    HW285092   7.466   6.813   9.523
26749SOL     OW85093   8.263   6.158   9.635
26749SOL    HW185094   8.270   6.069   9.589
26749SOL    HW285095   8.169   6.192   9.627
26750SOL     OW85096   7.921   6.086   9.501
26750SOL    HW185097   7.982   6.166   9.505
26750SOL    HW285098   7.826   6.117   9.508
26751SOL     OW85099   8.750   6.441   9.619
26751SOL    HW185100   8.664   6.410   9.661
26751SOL    HW285101   8.746   6.427   9.520
26752SOL     OW85102   8.836   7.159   9.787
26752SOL    HW185103   8.903   7.171   9.713
26752SOL    HW285104   8.796   7.248   9.810
26753SOL     OW85105   8.120   7.202   9.464
26753SOL    HW185106   8.129   7.212   9.365
26753SOL    HW285107   8.080   7.113   9.485
26754SOL     OW85108   8.642   7.198   9.341
26754SOL    HW185109   8.648   7.105   9.378
26754SOL    HW285110   8.583   7.198   9.261
26755SOL     OW85111   8.364   6.496   9.601
26755SOL    HW185112   8.427   6.534   9.533
26755SOL    HW285113   8.404   6.413   9.640
26756SOL     OW85114   8.038   7.073   9.801
26756SOL    HW185115   8.080   7.015   9.731
26756SOL    HW285116   7.994   7.152   9.757
26757SOL     OW85117   7.703   6.934   9.600
26757SOL    HW185118   7.607   6.935   9.573
26757SOL    HW285119   7.715   6.987   9.684
26758SOL     OW85120   7.523   5.931   9.343
26758SOL    HW185121   7.431   5.903   9.314
26758SOL    HW285122   7.554   6.008   9.287
26759SOL     OW85123   7.520   5.752   9.628
26759SOL    HW185124   7.503   5.835   9.574
26759SOL    HW285125   7.610   5.715   9.606
26760SOL     OW85126   8.631   6.921   9.429
26760SOL    HW185127   8.532   6.910   9.431
26760SOL    HW285128   8.665   6.936   9.522
26761SOL     OW85129   8.673   5.911   9.759
26761SOL    HW185130   8.738   5.837   9.748
26761SOL    HW285131   8.693   5.961   9.843
26762SOL     OW85132   8.042   6.331   9.962
26762SOL    HW185133   8.092   6.416   9.943
26762SOL    HW285134   7.954   6.333   9.914
26763SOL     OW85135   8.531   6.570   9.397
26763SOL    HW185136   8.508   6.623   9.315
26763SOL    HW285137   8.612   6.514   9.378
26764SOL     OW85138   7.527   6.826   9.963
26764SOL    HW185139   7.526   6.779  10.051
26764SOL    HW285140   7.609   6.798   9.912
26765SOL     OW85141   7.876   6.010   9.830
26765SOL    HW185142   7.906   5.938   9.768
26765SOL    HW285143   7.837   5.970   9.913
26766SOL     OW85144   8.218   6.916   9.611
26766SOL    HW185145   8.172   6.829   9.628
26766SOL    HW285146   8.309   6.913   9.652
26767SOL     OW85147   7.487   6.663   9.610
26767SOL    HW185148   7.586   6.652   9.601
26767SOL    HW285149   7.447   6.577   9.642
26768SOL     OW85150   8.323   7.232   9.647
26768SOL    HW185151   8.246   7.197   9.593
26768SOL    HW285152   8.291   7.303   9.709
26769SOL     OW85153   7.678   8.076   0.113
26769SOL    HW185154   7.585   8.074   0.150
26769SOL    HW285155   7.679   8.037   0.021
26770SOL     OW85156   7.673   7.723   0.996
26770SOL    HW185157   7.708   7.706   1.088
26770SOL    HW285158   7.585   7.678   0.984
26771SOL     OW85159   8.017   8.723   1.165
26771SOL    HW185160   7.924   8.716   1.128
26771SOL    HW285161   8.028   8.812   1.209
26772SOL     OW85162   9.003   8.959   0.703
26772SOL    HW185163   8.946   8.943   0.784
26772SOL    HW285164   8.944   8.969   0.623
26773SOL     OW85165   8.583   8.151   0.717
26773SOL    HW185166   8.640   8.229   0.692
26773SOL    HW285167   8.523   8.177   0.793
26774SOL     OW85168   9.203   8.055   0.231
26774SOL    HW185169   9.191   8.042   0.132
26774SOL    HW285170   9.173   7.974   0.280
26775SOL     OW85171   8.216   8.592   1.023
26775SOL    HW185172   8.138   8.609   1.083
26775SOL    HW285173   8.250   8.679   0.987
26776SOL     OW85174   8.298   8.246   1.823
26776SOL    HW185175   8.294   8.322   1.888
26776SOL    HW285176   8.320   8.282   1.732
26777SOL     OW85177   8.133   8.460   0.665
26777SOL    HW185178   8.202   8.444   0.735
26777SOL    HW285179   8.060   8.517   0.703
26778SOL     OW85180   7.783   8.883   1.061
26778SOL    HW185181   7.705   8.852   1.008
26778SOL    HW285182   7.841   8.941   1.004
26779SOL     OW85183   8.908   8.953   1.339
26779SOL    HW185184   8.932   9.047   1.365
26779SOL    HW285185   8.892   8.899   1.421
26780SOL     OW85186   7.886   7.840   1.499
26780SOL    HW185187   7.968   7.784   1.508
26780SOL    HW285188   7.805   7.782   1.503
26781SOL     OW85189   9.051   7.895   0.737
26781SOL    HW185190   8.977   7.941   0.687
26781SOL    HW285191   9.102   7.963   0.790
26782SOL     OW85192   7.679   9.161   0.483
26782SOL    HW185193   7.713   9.238   0.537
26782SOL    HW285194   7.723   9.161   0.393
26783SOL     OW85195   8.575   8.789   1.690
26783SOL    HW185196   8.622   8.789   1.778
26783SOL    HW285197   8.527   8.702   1.679
26784SOL     OW85198   7.678   8.882   0.538
26784SOL    HW185199   7.652   8.978   0.538
26784SOL    HW285200   7.607   8.828   0.583
26785SOL     OW85201   7.688   8.539   0.886
26785SOL    HW185202   7.702   8.455   0.938
26785SOL    HW285203   7.633   8.603   0.941
26786SOL     OW85204   8.068   9.234   1.439
26786SOL    HW185205   7.976   9.217   1.474
26786SOL    HW285206   8.096   9.326   1.465
26787SOL     OW85207   8.054   8.412   0.123
26787SOL    HW185208   8.061   8.496   0.069
26787SOL    HW285209   8.100   8.425   0.211
26788SOL     OW85210   9.042   7.562   1.480
26788SOL    HW185211   9.024   7.629   1.408
26788SOL    HW285212   9.039   7.608   1.569
26789SOL     OW85213   7.570   8.091   0.563
26789SOL    HW185214   7.525   8.003   0.580
26789SOL    HW285215   7.569   8.145   0.647
26790SOL     OW85216   9.290   9.215   0.359
26790SOL    HW185217   9.344   9.186   0.439
26790SOL    HW285218   9.320   9.305   0.330
26791SOL     OW85219   7.475   9.044   0.117
26791SOL    HW185220   7.456   8.948   0.138
26791SOL    HW285221   7.442   9.102   0.192
26792SOL     OW85222   9.137   8.370   0.612
26792SOL    HW185223   9.232   8.341   0.620
26792SOL    HW285224   9.129   8.435   0.537
26793SOL     OW85225   9.089   8.556   0.432
26793SOL    HW185226   9.175   8.558   0.380
26793SOL    HW285227   9.103   8.603   0.520
26794SOL     OW85228   7.561   8.185   1.597
26794SOL    HW185229   7.649   8.172   1.642
26794SOL    HW285230   7.548   8.282   1.575
26795SOL     OW85231   8.061   8.813   0.726
26795SOL    HW185232   8.012   8.726   0.735
26795SOL    HW285233   8.038   8.856   0.639
26796SOL     OW85234   8.741   8.676   1.423
26796SOL    HW185235   8.778   8.603   1.365
26796SOL    HW285236   8.793   8.681   1.508
26797SOL     OW85237   8.257   7.452   0.502
26797SOL    HW185238   8.297   7.543   0.493
26797SOL    HW285239   8.157   7.460   0.508
26798SOL     OW85240   7.645   8.424   1.264
26798SOL    HW185241   7.734   8.379   1.250
26798SOL    HW285242   7.572   8.359   1.245
26799SOL     OW85243   8.973   8.447   0.190
26799SOL    HW185244   8.910   8.371   0.203
26799SOL    HW285245   9.021   8.465   0.276
26800SOL     OW85246   8.635   9.240   1.616
26800SOL    HW185247   8.659   9.300   1.540
26800SOL    HW285248   8.642   9.145   1.586
26801SOL     OW85249   8.914   8.865   0.953
26801SOL    HW185250   8.855   8.871   1.033
26801SOL    HW285251   8.899   8.777   0.907
26802SOL     OW85252   9.115   9.162   0.572
26802SOL    HW185253   9.074   9.139   0.484
26802SOL    HW285254   9.097   9.088   0.637
26803SOL     OW85255   8.046   8.177   0.270
26803SOL    HW185256   8.070   8.246   0.202
26803SOL    HW285257   7.968   8.210   0.324
26804SOL     OW85258   8.729   7.793   0.944
26804SOL    HW185259   8.643   7.743   0.931
26804SOL    HW285260   8.791   7.739   1.000
26805SOL     OW85261   8.255   8.053   1.465
26805SOL    HW185262   8.208   8.050   1.554
26805SOL    HW285263   8.204   7.998   1.399
26806SOL     OW85264   8.842   7.917   1.674
26806SOL    HW185265   8.822   7.960   1.762
26806SOL    HW285266   8.920   7.855   1.683
26807SOL     OW85267   8.421   8.338   1.572
26807SOL    HW185268   8.467   8.254   1.543
26807SOL    HW285269   8.365   8.372   1.497
26808SOL     OW85270   8.439   7.858   1.242
26808SOL    HW185271   8.362   7.892   1.296
26808SOL    HW285272   8.405   7.807   1.163
26809SOL     OW85273   8.489   8.149   0.429
26809SOL    HW185274   8.515   8.145   0.525
26809SOL    HW285275   8.404   8.098   0.415
26810SOL     OW85276   7.524   8.259   0.789
26810SOL    HW185277   7.623   8.247   0.798
26810SOL    HW285278   7.500   8.354   0.810
26811SOL     OW85279   7.578   9.269   1.571
26811SOL    HW185280   7.568   9.254   1.670
26811SOL    HW285281   7.492   9.305   1.535
26812SOL     OW85282   8.313   7.796   0.195
26812SOL    HW185283   8.372   7.859   0.146
26812SOL    HW285284   8.332   7.702   0.166
26813SOL     OW85285   9.167   8.033   1.831
26813SOL    HW185286   9.141   8.122   1.795
26813SOL    HW285287   9.165   7.965   1.758
26814SOL     OW85288   8.810   8.592   0.545
26814SOL    HW185289   8.893   8.563   0.497
26814SOL    HW285290   8.761   8.659   0.489
26815SOL     OW85291   7.998   7.644   0.885
26815SOL    HW185292   7.993   7.639   0.985
26815SOL    HW285293   8.000   7.740   0.856
26816SOL     OW85294   8.456   8.904   0.477
26816SOL    HW185295   8.410   8.976   0.425
26816SOL    HW285296   8.452   8.924   0.575
26817SOL     OW85297   7.799   9.249   0.853
26817SOL    HW185298   7.849   9.163   0.859
26817SOL    HW285299   7.864   9.326   0.850
26818SOL     OW85300   9.243   8.514   0.873
26818SOL    HW185301   9.181   8.499   0.797
26818SOL    HW285302   9.191   8.525   0.958
26819SOL     OW85303   8.675   8.998   1.506
26819SOL    HW185304   8.681   8.921   1.570
26819SOL    HW285305   8.623   8.972   1.426
26820SOL     OW85306   7.769   8.391   0.242
26820SOL    HW185307   7.851   8.430   0.200
26820SOL    HW285308   7.742   8.309   0.193
26821SOL     OW85309   8.906   8.183   0.728
26821SOL    HW185310   8.901   8.118   0.803
26821SOL    HW285311   8.986   8.242   0.741
26822SOL     OW85312   7.909   8.714   1.727
26822SOL    HW185313   7.859   8.715   1.641
26822SOL    HW285314   7.846   8.696   1.803
26823SOL     OW85315   8.559   9.224   0.237
26823SOL    HW185316   8.499   9.162   0.287
26823SOL    HW285317   8.590   9.180   0.152
26824SOL     OW85318   7.650   7.733   1.498
26824SOL    HW185319   7.570   7.793   1.485
26824SOL    HW285320   7.640   7.684   1.584
26825SOL     OW85321   9.080   8.825   0.081
26825SOL    HW185322   9.048   8.919   0.071
26825SOL    HW285323   9.004   8.762   0.069
26826SOL     OW85324   7.912   9.191   0.323
26826SOL    HW185325   7.945   9.230   0.409
26826SOL    HW285326   7.988   9.184   0.258
26827SOL     OW85327   7.697   9.233   1.241
26827SOL    HW185328   7.754   9.168   1.291
26827SOL    HW285329   7.681   9.200   1.148
26828SOL     OW85330   8.388   9.146   0.904
26828SOL    HW185331   8.468   9.089   0.925
26828SOL    HW285332   8.339   9.106   0.827
26829SOL     OW85333   7.830   8.148   0.480
26829SOL    HW185334   7.875   8.058   0.477
26829SOL    HW285335   7.736   8.137   0.513
26830SOL     OW85336   8.995   7.670   1.729
26830SOL    HW185337   8.990   7.707   1.821
26830SOL    HW285338   8.923   7.601   1.717
26831SOL     OW85339   8.062   7.570   0.117
26831SOL    HW185340   8.160   7.548   0.124
26831SOL    HW285341   8.031   7.553   0.024
26832SOL     OW85342   8.336   8.962   1.195
26832SOL    HW185343   8.313   8.937   1.101
26832SOL    HW285344   8.397   8.893   1.234
26833SOL     OW85345   8.799   8.038   1.433
26833SOL    HW185346   8.827   7.995   1.518
26833SOL    HW285347   8.824   8.134   1.434
26834SOL     OW85348   8.251   8.850   0.924
26834SOL    HW185349   8.341   8.864   0.882
26834SOL    HW285350   8.180   8.852   0.853
26835SOL     OW85351   8.370   7.951   0.899
26835SOL    HW185352   8.345   7.942   0.803
26835SOL    HW285353   8.418   7.869   0.930
26836SOL     OW85354   7.987   7.512   0.512
26836SOL    HW185355   7.906   7.513   0.570
26836SOL    HW285356   7.990   7.595   0.457
26837SOL     OW85357   8.882   8.636   0.041
26837SOL    HW185358   8.914   8.560   0.098
26837SOL    HW285359   8.790   8.663   0.071
26838SOL     OW85360   8.383   7.684   0.480
26838SOL    HW185361   8.335   7.725   0.402
26838SOL    HW285362   8.482   7.682   0.461
26839SOL     OW85363   8.524   8.131   1.464
26839SOL    HW185364   8.444   8.070   1.467
26839SOL    HW285365   8.605   8.078   1.440
26840SOL     OW85366   8.675   9.018   0.793
26840SOL    HW185367   8.696   9.092   0.728
26840SOL    HW285368   8.743   9.018   0.866
26841SOL     OW85369   7.907   8.600   0.741
26841SOL    HW185370   7.836   8.573   0.806
26841SOL    HW285371   7.881   8.572   0.648
26842SOL     OW85372   8.719   9.245   0.591
26842SOL    HW185373   8.763   9.309   0.527
26842SOL    HW285374   8.669   9.297   0.661
26843SOL     OW85375   8.480   7.997   0.016
26843SOL    HW185376   8.439   8.079  -0.023
26843SOL    HW285377   8.544   8.023   0.089
26844SOL     OW85378   7.526   8.004   1.386
26844SOL    HW185379   7.618   8.003   1.345
26844SOL    HW285380   7.520   8.078   1.453
26845SOL     OW85381   8.009   7.670   1.147
26845SOL    HW185382   8.047   7.586   1.184
26845SOL    HW285383   7.921   7.689   1.191
26846SOL     OW85384   8.314   7.902   0.642
26846SOL    HW185385   8.282   7.974   0.580
26846SOL    HW285386   8.338   7.821   0.589
26847SOL     OW85387   8.465   7.487   0.753
26847SOL    HW185388   8.393   7.492   0.684
26847SOL    HW285389   8.441   7.418   0.822
26848SOL     OW85390   8.877   8.621   0.867
26848SOL    HW185391   8.822   8.537   0.860
26848SOL    HW285392   8.903   8.650   0.775
26849SOL     OW85393   8.914   8.038   0.992
26849SOL    HW185394   8.884   7.943   0.999
26849SOL    HW285395   8.987   8.054   1.058
26850SOL     OW85396   9.305   8.281   0.377
26850SOL    HW185397   9.347   8.217   0.441
26850SOL    HW285398   9.267   8.230   0.299
26851SOL     OW85399   7.936   8.833   0.174
26851SOL    HW185400   7.849   8.818   0.221
26851SOL    HW285401   7.919   8.859   0.079
26852SOL     OW85402   9.112   8.728   0.657
26852SOL    HW185403   9.211   8.736   0.671
26852SOL    HW285404   9.067   8.812   0.688
26853SOL     OW85405   8.838   8.023   0.078
26853SOL    HW185406   8.784   8.002   0.159
26853SOL    HW285407   8.929   7.982   0.087
26854SOL     OW85408   7.975   7.704   0.328
26854SOL    HW185409   8.002   7.645   0.253
26854SOL    HW285410   7.975   7.799   0.297
26855SOL     OW85411   9.202   8.671   1.588
26855SOL    HW185412   9.293   8.632   1.575
26855SOL    HW285413   9.210   8.767   1.612
26856SOL     OW85414   8.512   8.795   1.340
26856SOL    HW185415   8.432   8.772   1.395
26856SOL    HW285416   8.595   8.769   1.389
26857SOL     OW85417   9.040   9.077   1.625
26857SOL    HW185418   9.067   9.111   1.535
26857SOL    HW285419   9.119   9.039   1.671
26858SOL     OW85420   8.559   8.643   1.100
26858SOL    HW185421   8.519   8.687   1.181
26858SOL    HW285422   8.518   8.680   1.017
26859SOL     OW85423   9.086   8.547   1.079
26859SOL    HW185424   9.091   8.628   1.138
26859SOL    HW285425   9.000   8.549   1.028
26860SOL     OW85426   8.363   7.537   1.402
26860SOL    HW185427   8.388   7.517   1.307
26860SOL    HW285428   8.435   7.593   1.444
26861SOL     OW85429   8.428   8.564   1.719
26861SOL    HW185430   8.329   8.570   1.729
26861SOL    HW285431   8.451   8.484   1.663
26862SOL     OW85432   8.153   8.498   0.368
26862SOL    HW185433   8.139   8.505   0.467
26862SOL    HW285434   8.237   8.447   0.350
26863SOL     OW85435   7.858   8.261   1.251
26863SOL    HW185436   7.944   8.273   1.301
26863SOL    HW285437   7.816   8.174   1.278
26864SOL     OW85438   8.722   7.834   1.262
26864SOL    HW185439   8.743   7.908   1.326
26864SOL    HW285440   8.633   7.851   1.219
26865SOL     OW85441   7.512   9.012   1.331
26865SOL    HW185442   7.466   9.094   1.297
26865SOL    HW285443   7.610   9.031   1.340
26866SOL     OW85444   7.815   8.548   0.501
26866SOL    HW185445   7.808   8.631   0.445
26866SOL    HW285446   7.819   8.468   0.441
26867SOL     OW85447   8.014   7.985   0.865
26867SOL    HW185448   8.026   8.051   0.791
26867SOL    HW285449   8.060   8.019   0.948
26868SOL     OW85450   8.700   8.796   0.388
26868SOL    HW185451   8.750   8.873   0.428
26868SOL    HW285452   8.605   8.798   0.420
26869SOL     OW85453   8.720   8.893   1.142
26869SOL    HW185454   8.767   8.906   1.229
26869SOL    HW285455   8.654   8.819   1.151
26870SOL     OW85456   9.030   8.087   0.472
26870SOL    HW185457   8.999   8.148   0.545
26870SOL    HW285458   9.080   8.139   0.403
26871SOL     OW85459   7.802   8.958   1.329
26871SOL    HW185460   7.781   8.914   1.242
26871SOL    HW285461   7.899   8.984   1.332
26872SOL     OW85462   7.850   8.199   1.598
26872SOL    HW185463   7.918   8.254   1.551
26872SOL    HW285464   7.890   8.111   1.625
26873SOL     OW85465   9.035   8.227   1.670
26873SOL    HW185466   8.943   8.265   1.665
26873SOL    HW285467   9.095   8.274   1.605
26874SOL     OW85468   8.461   7.553   1.770
26874SOL    HW185469   8.467   7.638   1.718
26874SOL    HW285470   8.493   7.477   1.713
26875SOL     OW85471   8.021   8.318   1.029
26875SOL    HW185472   8.065   8.407   1.020
26875SOL    HW285473   7.958   8.318   1.106
26876SOL     OW85474   8.808   8.310   1.045
26876SOL    HW185475   8.733   8.310   0.979
26876SOL    HW285476   8.845   8.218   1.054
26877SOL     OW85477   8.657   7.973   0.275
26877SOL    HW185478   8.670   7.889   0.329
26877SOL    HW285479   8.628   8.047   0.335
26878SOL     OW85480   7.755   7.661   1.231
26878SOL    HW185481   7.732   7.698   1.321
26878SOL    HW285482   7.725   7.566   1.225
26879SOL     OW85483   7.485   8.758   1.282
26879SOL    HW185484   7.538   8.709   1.350
26879SOL    HW285485   7.507   8.856   1.287
26880SOL     OW85486   8.180   8.082   1.064
26880SOL    HW185487   8.239   8.056   0.988
26880SOL    HW285488   8.152   8.178   1.053
26881SOL     OW85489   9.176   8.383   1.854
26881SOL    HW185490   9.130   8.376   1.765
26881SOL    HW285491   9.114   8.427   1.920
26882SOL     OW85492   7.755   7.511   0.618
26882SOL    HW185493   7.744   7.605   0.651
26882SOL    HW285494   7.750   7.448   0.695
26883SOL     OW85495   9.070   7.815   0.374
26883SOL    HW185496   9.072   7.739   0.438
26883SOL    HW285497   9.022   7.892   0.414
26884SOL     OW85498   8.471   8.214   0.966
26884SOL    HW185499   8.486   8.235   1.062
26884SOL    HW285500   8.441   8.119   0.957
26885SOL     OW85501   8.428   9.021   1.700
26885SOL    HW185502   8.408   9.065   1.612
26885SOL    HW285503   8.467   8.930   1.684
26886SOL     OW85504   9.307   8.966   1.605
26886SOL    HW185505   9.321   8.993   1.510
26886SOL    HW285506   9.390   8.988   1.658
26887SOL     OW85507   7.798   8.346   1.804
26887SOL    HW185508   7.874   8.390   1.852
26887SOL    HW285509   7.833   8.299   1.722
26888SOL     OW85510   8.988   7.722   0.125
26888SOL    HW185511   8.927   7.647   0.148
26888SOL    HW285512   9.010   7.774   0.208
26889SOL     OW85513   8.751   8.286   0.042
26889SOL    HW185514   8.785   8.193   0.057
26889SOL    HW285515   8.769   8.313  -0.053
26890SOL     OW85516   8.516   8.781   0.849
26890SOL    HW185517   8.523   8.697   0.794
26890SOL    HW285518   8.578   8.850   0.813
26891SOL     OW85519   7.767   8.258   0.949
26891SOL    HW185520   7.860   8.294   0.954
26891SOL    HW285521   7.761   8.173   1.001
26892SOL     OW85522   7.787   7.957   1.006
26892SOL    HW185523   7.735   7.874   0.989
26892SOL    HW285524   7.864   7.962   0.942
26893SOL     OW85525   8.586   7.828   1.678
26893SOL    HW185526   8.541   7.891   1.742
26893SOL    HW285527   8.679   7.859   1.661
26894SOL     OW85528   7.456   8.774   0.200
26894SOL    HW185529   7.363   8.795   0.169
26894SOL    HW285530   7.466   8.675   0.213
26895SOL     OW85531   7.536   9.249   0.927
26895SOL    HW185532   7.494   9.163   0.900
26895SOL    HW285533   7.630   9.252   0.893
26896SOL     OW85534   7.952   9.016   0.910
26896SOL    HW185535   8.018   9.090   0.919
26896SOL    HW285536   7.996   8.937   0.868
26897SOL     OW85537   8.450   8.244   1.238
26897SOL    HW185538   8.491   8.212   1.324
26897SOL    HW285539   8.354   8.217   1.235
26898SOL     OW85540   7.488   7.992   1.114
26898SOL    HW185541   7.573   7.959   1.073
26898SOL    HW285542   7.501   8.007   1.212
26899SOL     OW85543   7.637   7.968   1.722
26899SOL    HW185544   7.696   7.928   1.652
26899SOL    HW285545   7.579   8.039   1.681
26900SOL     OW85546   8.817   8.398   1.660
26900SOL    HW185547   8.856   8.487   1.680
26900SOL    HW285548   8.827   8.378   1.563
26901SOL     OW85549   8.263   8.020   0.325
26901SOL    HW185550   8.270   7.931   0.279
26901SOL    HW285551   8.169   8.054   0.317
26902SOL     OW85552   9.105   8.052   1.206
26902SOL    HW185553   9.067   7.983   1.268
26902SOL    HW285554   9.187   8.016   1.162
26903SOL     OW85555   7.700   9.012   1.744
26903SOL    HW185556   7.670   9.069   1.820
26903SOL    HW285557   7.693   8.915   1.770
26904SOL     OW85558   8.119   7.912   1.269
26904SOL    HW185559   8.085   7.823   1.239
26904SOL    HW285560   8.145   7.966   1.189
26905SOL     OW85561   8.378   9.126   1.465
26905SOL    HW185562   8.354   9.108   1.370
26905SOL    HW285563   8.408   9.220   1.475
26906SOL     OW85564   7.921   7.948   0.191
26906SOL    HW185565   7.982   8.028   0.195
26906SOL    HW285566   7.826   7.979   0.198
26907SOL     OW85567   7.607   8.585   1.466
26907SOL    HW185568   7.629   8.524   1.542
26907SOL    HW285569   7.617   8.536   1.380
26908SOL     OW85570   8.795   8.507   1.234
26908SOL    HW185571   8.819   8.444   1.160
26908SOL    HW285572   8.705   8.547   1.216
26909SOL     OW85573   8.750   8.303   0.309
26909SOL    HW185574   8.664   8.272   0.351
26909SOL    HW285575   8.746   8.289   0.210
26910SOL     OW85576   9.207   9.195   1.154
26910SOL    HW185577   9.268   9.225   1.081
26910SOL    HW285578   9.169   9.106   1.132
26911SOL     OW85579   8.700   9.179   1.128
26911SOL    HW185580   8.784   9.184   1.074
26911SOL    HW285581   8.677   9.083   1.146
26912SOL     OW85582   7.531   8.706   1.022
26912SOL    HW185583   7.526   8.705   1.122
26912SOL    HW285584   7.448   8.665   0.984
26913SOL     OW85585   8.136   9.110   1.716
26913SOL    HW185586   8.080   9.191   1.725
26913SOL    HW285587   8.188   9.114   1.630
26914SOL     OW85588   8.351   7.534   0.133
26914SOL    HW185589   8.402   7.535   0.047
26914SOL    HW285590   8.407   7.492   0.204
26915SOL     OW85591   9.174   7.583   0.523
26915SOL    HW185592   9.247   7.566   0.456
26915SOL    HW285593   9.143   7.496   0.561
26916SOL     OW85594   8.836   9.021   0.477
26916SOL    HW185595   8.903   9.033   0.403
26916SOL    HW285596   8.796   9.110   0.500
26917SOL     OW85597   7.578   9.242   1.851
26917SOL    HW185598   7.537   9.168   1.904
26917SOL    HW285599   7.642   9.293   1.909
26918SOL     OW85600   8.728   8.375   0.672
26918SOL    HW185601   8.788   8.294   0.674
26918SOL    HW285602   8.768   8.444   0.612
26919SOL     OW85603   8.278   8.721   1.422
26919SOL    HW185604   8.273   8.754   1.517
26919SOL    HW285605   8.192   8.740   1.376
26920SOL     OW85606   8.120   9.064   0.154
26920SOL    HW185607   8.129   9.074   0.055
26920SOL    HW285608   8.080   8.975   0.175
26921SOL     OW85609   9.098   9.168   1.394
26921SOL    HW185610   9.151   9.178   1.310
26921SOL    HW285611   9.071   9.258   1.428
26922SOL     OW85612   9.289   7.623   0.963
26922SOL    HW185613   9.328   7.538   0.927
26922SOL    HW285614   9.191   7.625   0.944
26923SOL     OW85615   7.711   7.774   0.720
26923SOL    HW185616   7.632   7.825   0.686
26923SOL    HW285617   7.702   7.759   0.818
26924SOL     OW85618   8.642   9.060   0.031
26924SOL    HW185619   8.648   8.967   0.068
26924SOL    HW285620   8.583   9.060  -0.049
26925SOL     OW85621   8.270   8.450   1.372
26925SOL    HW185622   8.310   8.449   1.280
26925SOL    HW285623   8.280   8.542   1.412
26926SOL     OW85624   8.364   8.358   0.291
26926SOL    HW185625   8.427   8.396   0.223
26926SOL    HW285626   8.404   8.275   0.330
26927SOL     OW85627   8.952   9.055   0.044
26927SOL    HW185628   8.860   9.092   0.051
26927SOL    HW285629   8.990   9.075  -0.046
26928SOL     OW85630   7.820   8.736   1.490
26928SOL    HW185631   7.807   8.829   1.456
26928SOL    HW285632   7.736   8.684   1.477
26929SOL     OW85633   9.062   8.740   1.289
26929SOL    HW185634   9.122   8.743   1.369
26929SOL    HW285635   8.987   8.804   1.302
26930SOL     OW85636   8.487   8.546   0.696
26930SOL    HW185637   8.417   8.499   0.750
26930SOL    HW285638   8.546   8.478   0.653
26931SOL     OW85639   8.462   7.684   0.971
26931SOL    HW185640   8.454   7.648   0.878
26931SOL    HW285641   8.460   7.608   1.036
26932SOL     OW85642   8.038   8.935   0.491
26932SOL    HW185643   8.080   8.877   0.421
26932SOL    HW285644   7.994   9.014   0.447
26933SOL     OW85645   9.157   7.833   1.381
26933SOL    HW185646   9.230   7.902   1.385
26933SOL    HW285647   9.185   7.758   1.322
26934SOL     OW85648   7.703   8.796   0.290
26934SOL    HW185649   7.607   8.797   0.263
26934SOL    HW285650   7.715   8.849   0.374
26935SOL     OW85651   7.553   8.461   1.726
26935SOL    HW185652   7.476   8.428   1.780
26935SOL    HW285653   7.638   8.431   1.768
26936SOL     OW85654   8.120   7.651   1.489
26936SOL    HW185655   8.210   7.635   1.449
26936SOL    HW285656   8.128   7.656   1.588
26937SOL     OW85657   7.523   7.793   0.033
26937SOL    HW185658   7.431   7.765   0.004
26937SOL    HW285659   7.554   7.870  -0.023
26938SOL     OW85660   8.888   8.304   1.398
26938SOL    HW185661   8.831   8.356   1.335
26938SOL    HW285662   8.984   8.316   1.374
26939SOL     OW85663   7.520   7.614   0.318
26939SOL    HW185664   7.503   7.697   0.264
26939SOL    HW285665   7.610   7.577   0.296
26940SOL     OW85666   8.631   8.783   0.119
26940SOL    HW185667   8.532   8.772   0.121
26940SOL    HW285668   8.665   8.798   0.212
26941SOL     OW85669   8.061   8.290   1.431
26941SOL    HW185670   8.117   8.371   1.414
26941SOL    HW285671   8.120   8.210   1.434
26942SOL     OW85672   8.941   9.215   0.959
26942SOL    HW185673   8.974   9.279   0.890
26942SOL    HW285674   9.007   9.209   1.034
26943SOL     OW85675   8.164   8.013   1.708
26943SOL    HW185676   8.183   8.078   1.782
26943SOL    HW285677   8.224   7.933   1.717
26944SOL     OW85678   8.898   8.668   1.633
26944SOL    HW185679   8.889   8.658   1.732
26944SOL    HW285680   8.994   8.661   1.607
26945SOL     OW85681   7.838   9.189   1.560
26945SOL    HW185682   7.747   9.230   1.558
26945SOL    HW285683   7.831   9.095   1.592
26946SOL     OW85684   9.122   8.331   1.254
26946SOL    HW185685   9.095   8.242   1.217
26946SOL    HW285686   9.123   8.399   1.181
26947SOL     OW85687   8.673   7.773   0.449
26947SOL    HW185688   8.738   7.699   0.438
26947SOL    HW285689   8.693   7.823   0.533
26948SOL     OW85690   8.042   8.193   0.652
26948SOL    HW185691   8.092   8.278   0.633
26948SOL    HW285692   7.954   8.195   0.604
26949SOL     OW85693   9.225   7.790   1.642
26949SOL    HW185694   9.208   7.821   1.548
26949SOL    HW285695   9.141   7.753   1.680
26950SOL     OW85696   9.178   8.382   1.517
26950SOL    HW185697   9.216   8.473   1.532
26950SOL    HW285698   9.170   8.365   1.418
26951SOL     OW85699   8.307   8.822   0.016
26951SOL    HW185700   8.261   8.837   0.104
26951SOL    HW285701   8.351   8.907  -0.014
26952SOL     OW85702   8.109   9.238   0.953
26952SOL    HW185703   8.063   9.326   0.940
26952SOL    HW285704   8.208   9.250   0.946
26953SOL     OW85705   8.307   8.404   0.861
26953SOL    HW185706   8.361   8.335   0.909
26953SOL    HW285707   8.275   8.473   0.927
26954SOL     OW85708   8.531   8.432   0.087
26954SOL    HW185709   8.508   8.485   0.005
26954SOL    HW285710   8.612   8.376   0.068
26955SOL     OW85711   9.309   9.017   0.851
26955SOL    HW185712   9.238   9.005   0.781
26955SOL    HW285713   9.310   8.938   0.911
26956SOL     OW85714   7.669   8.762   1.844
26956SOL    HW185715   7.604   8.689   1.823
26956SOL    HW285716   7.673   8.776   1.942
26957SOL     OW85717   7.527   8.688   0.653
26957SOL    HW185718   7.526   8.641   0.741
26957SOL    HW285719   7.609   8.660   0.602
26958SOL     OW85720   8.120   8.839   1.624
26958SOL    HW185721   8.042   8.789   1.662
26958SOL    HW285722   8.117   8.934   1.655
26959SOL     OW85723   9.272   7.640   1.227
26959SOL    HW185724   9.268   7.550   1.271
26959SOL    HW285725   9.275   7.629   1.128
26960SOL     OW85726   7.876   7.872   0.520
26960SOL    HW185727   7.906   7.800   0.458
26960SOL    HW285728   7.837   7.832   0.603
26961SOL     OW85729   9.153   8.935   1.104
26961SOL    HW185730   9.060   8.910   1.077
26961SOL    HW285731   9.179   8.885   1.186
26962SOL     OW85732   7.765   7.995   1.280
26962SOL    HW185733   7.803   7.936   1.352
26962SOL    HW285734   7.805   7.969   1.192
26963SOL     OW85735   8.260   9.034   0.687
26963SOL    HW185736   8.292   9.044   0.593
26963SOL    HW285737   8.181   8.972   0.689
26964SOL     OW85738   8.872   7.662   1.112
26964SOL    HW185739   8.924   7.597   1.167
26964SOL    HW285740   8.823   7.725   1.173
26965SOL     OW85741   8.449   7.482   1.154
26965SOL    HW185742   8.386   7.410   1.123
26965SOL    HW285743   8.542   7.446   1.154
26966SOL     OW85744   8.218   8.778   0.301
26966SOL    HW185745   8.172   8.691   0.318
26966SOL    HW285746   8.309   8.775   0.342
26967SOL     OW85747   8.066   9.015   1.284
26967SOL    HW185748   8.061   9.097   1.341
26967SOL    HW285749   8.155   9.012   1.239
26968SOL     OW85750   8.800   7.500   0.168
26968SOL    HW185751   8.835   7.459   0.084
26968SOL    HW285752   8.710   7.462   0.188
26969SOL     OW85753   8.748   7.901   0.691
26969SOL    HW185754   8.689   7.981   0.695
26969SOL    HW285755   8.763   7.866   0.784
26970SOL     OW85756   9.041   7.669   0.882
26970SOL    HW185757   8.957   7.668   0.936
26970SOL    HW285758   9.043   7.752   0.826
26971SOL     OW85759   7.487   8.525   0.300
26971SOL    HW185760   7.586   8.514   0.291
26971SOL    HW285761   7.447   8.439   0.332
26972SOL     OW85762   8.323   9.094   0.337
26972SOL    HW185763   8.246   9.059   0.283
26972SOL    HW285764   8.291   9.165   0.399
26973SOL     OW85765   7.678   8.076   1.975
26973SOL    HW185766   7.585   8.074   2.012
26973SOL    HW285767   7.679   8.037   1.883
26974SOL     OW85768   7.673   7.723   2.858
26974SOL    HW185769   7.708   7.706   2.950
26974SOL    HW285770   7.585   7.678   2.846
26975SOL     OW85771   8.017   8.723   3.027
26975SOL    HW185772   7.924   8.716   2.990
26975SOL    HW285773   8.028   8.812   3.071
26976SOL     OW85774   9.003   8.959   2.565
26976SOL    HW185775   8.946   8.943   2.646
26976SOL    HW285776   8.944   8.969   2.485
26977SOL     OW85777   8.583   8.151   2.579
26977SOL    HW185778   8.640   8.229   2.554
26977SOL    HW285779   8.523   8.177   2.655
26978SOL     OW85780   9.203   8.055   2.093
26978SOL    HW185781   9.191   8.042   1.994
26978SOL    HW285782   9.173   7.974   2.142
26979SOL     OW85783   8.216   8.592   2.885
26979SOL    HW185784   8.138   8.609   2.945
26979SOL    HW285785   8.250   8.679   2.849
26980SOL     OW85786   8.298   8.246   3.685
26980SOL    HW185787   8.294   8.322   3.750
26980SOL    HW285788   8.320   8.282   3.594
26981SOL     OW85789   8.134   8.609   3.665
26981SOL    HW185790   8.194   8.688   3.679
26981SOL    HW285791   8.048   8.640   3.624
26982SOL     OW85792   7.783   8.883   2.923
26982SOL    HW185793   7.705   8.852   2.870
26982SOL    HW285794   7.841   8.941   2.866
26983SOL     OW85795   8.908   8.953   3.201
26983SOL    HW185796   8.932   9.047   3.227
26983SOL    HW285797   8.892   8.899   3.283
26984SOL     OW85798   7.886   7.840   3.361
26984SOL    HW185799   7.968   7.784   3.370
26984SOL    HW285800   7.805   7.782   3.365
26985SOL     OW85801   9.051   7.895   2.599
26985SOL    HW185802   8.977   7.941   2.549
26985SOL    HW285803   9.102   7.963   2.652
26986SOL     OW85804   7.679   9.161   2.345
26986SOL    HW185805   7.713   9.238   2.399
26986SOL    HW285806   7.723   9.161   2.255
26987SOL     OW85807   7.678   8.882   2.400
26987SOL    HW185808   7.652   8.978   2.400
26987SOL    HW285809   7.607   8.828   2.445
26988SOL     OW85810   7.688   8.539   2.748
26988SOL    HW185811   7.702   8.455   2.800
26988SOL    HW285812   7.633   8.603   2.803
26989SOL     OW85813   8.068   9.234   3.301
26989SOL    HW185814   7.976   9.217   3.336
26989SOL    HW285815   8.096   9.326   3.327
26990SOL     OW85816   8.054   8.412   1.985
26990SOL    HW185817   8.061   8.496   1.931
26990SOL    HW285818   8.100   8.425   2.073
26991SOL     OW85819   9.042   7.562   3.342
26991SOL    HW185820   9.024   7.629   3.270
26991SOL    HW285821   9.039   7.608   3.431
26992SOL     OW85822   7.570   8.091   2.425
26992SOL    HW185823   7.525   8.003   2.442
26992SOL    HW285824   7.569   8.145   2.509
26993SOL     OW85825   9.290   9.215   2.221
26993SOL    HW185826   9.344   9.186   2.301
26993SOL    HW285827   9.320   9.305   2.192
26994SOL     OW85828   7.475   9.044   1.979
26994SOL    HW185829   7.456   8.948   2.000
26994SOL    HW285830   7.442   9.102   2.054
26995SOL     OW85831   9.137   8.370   2.474
26995SOL    HW185832   9.232   8.341   2.482
26995SOL    HW285833   9.129   8.435   2.399
26996SOL     OW85834   9.089   8.556   2.294
26996SOL    HW185835   9.175   8.558   2.242
26996SOL    HW285836   9.103   8.603   2.382
26997SOL     OW85837   7.561   8.185   3.459
26997SOL    HW185838   7.649   8.172   3.504
26997SOL    HW285839   7.548   8.282   3.437
26998SOL     OW85840   8.061   8.813   2.588
26998SOL    HW185841   8.012   8.726   2.597
26998SOL    HW285842   8.038   8.856   2.501
26999SOL     OW85843   8.257   7.452   2.364
26999SOL    HW185844   8.297   7.543   2.355
26999SOL    HW285845   8.157   7.460   2.370
27000SOL     OW85846   7.645   8.424   3.126
27000SOL    HW185847   7.734   8.379   3.112
27000SOL    HW285848   7.572   8.359   3.107
27001SOL     OW85849   8.973   8.447   2.052
27001SOL    HW185850   8.910   8.371   2.065
27001SOL    HW285851   9.021   8.465   2.138
27002SOL     OW85852   8.635   9.240   3.478
27002SOL    HW185853   8.659   9.300   3.402
27002SOL    HW285854   8.642   9.145   3.448
27003SOL     OW85855   7.765   7.699   3.663
27003SOL    HW185856   7.836   7.770   3.669
27003SOL    HW285857   7.677   7.738   3.691
27004SOL     OW85858   8.914   8.865   2.815
27004SOL    HW185859   8.855   8.871   2.895
27004SOL    HW285860   8.899   8.777   2.769
27005SOL     OW85861   9.115   9.162   2.434
27005SOL    HW185862   9.074   9.139   2.346
27005SOL    HW285863   9.097   9.088   2.499
27006SOL     OW85864   8.046   8.177   2.132
27006SOL    HW185865   8.070   8.246   2.064
27006SOL    HW285866   7.968   8.210   2.186
27007SOL     OW85867   8.729   7.793   2.806
27007SOL    HW185868   8.643   7.743   2.793
27007SOL    HW285869   8.791   7.739   2.862
27008SOL     OW85870   9.024   9.110   2.169
27008SOL    HW185871   9.113   9.156   2.172
27008SOL    HW285872   9.003   9.086   2.074
27009SOL     OW85873   8.255   8.053   3.327
27009SOL    HW185874   8.208   8.050   3.416
27009SOL    HW285875   8.204   7.998   3.261
27010SOL     OW85876   8.842   7.917   3.536
27010SOL    HW185877   8.822   7.960   3.624
27010SOL    HW285878   8.920   7.855   3.545
27011SOL     OW85879   8.439   7.858   3.104
27011SOL    HW185880   8.362   7.892   3.158
27011SOL    HW285881   8.405   7.807   3.025
27012SOL     OW85882   8.489   8.149   2.291
27012SOL    HW185883   8.515   8.145   2.387
27012SOL    HW285884   8.404   8.098   2.277
27013SOL     OW85885   7.524   8.259   2.651
27013SOL    HW185886   7.623   8.247   2.660
27013SOL    HW285887   7.500   8.354   2.672
27014SOL     OW85888   7.578   9.269   3.433
27014SOL    HW185889   7.568   9.254   3.532
27014SOL    HW285890   7.492   9.305   3.397
27015SOL     OW85891   8.313   7.796   2.057
27015SOL    HW185892   8.372   7.859   2.008
27015SOL    HW285893   8.332   7.702   2.028
27016SOL     OW85894   9.167   8.033   3.693
27016SOL    HW185895   9.141   8.122   3.657
27016SOL    HW285896   9.165   7.965   3.620
27017SOL     OW85897   8.810   8.592   2.407
27017SOL    HW185898   8.893   8.563   2.359
27017SOL    HW285899   8.761   8.659   2.351
27018SOL     OW85900   7.998   7.644   2.747
27018SOL    HW185901   7.993   7.639   2.847
27018SOL    HW285902   8.000   7.740   2.718
27019SOL     OW85903   8.456   8.904   2.339
27019SOL    HW185904   8.410   8.976   2.287
27019SOL    HW285905   8.452   8.924   2.437
27020SOL     OW85906   9.243   8.514   2.735
27020SOL    HW185907   9.181   8.499   2.659
27020SOL    HW285908   9.191   8.525   2.820
27021SOL     OW85909   7.769   8.391   2.104
27021SOL    HW185910   7.851   8.430   2.062
27021SOL    HW285911   7.742   8.309   2.055
27022SOL     OW85912   8.906   8.183   2.590
27022SOL    HW185913   8.901   8.118   2.665
27022SOL    HW285914   8.986   8.242   2.603
27023SOL     OW85915   7.909   8.714   3.589
27023SOL    HW185916   7.859   8.715   3.503
27023SOL    HW285917   7.846   8.696   3.665
27024SOL     OW85918   8.559   9.224   2.099
27024SOL    HW185919   8.499   9.162   2.149
27024SOL    HW285920   8.590   9.180   2.014
27025SOL     OW85921   7.650   7.733   3.360
27025SOL    HW185922   7.570   7.793   3.347
27025SOL    HW285923   7.640   7.684   3.446
27026SOL     OW85924   9.080   8.825   1.943
27026SOL    HW185925   9.048   8.919   1.933
27026SOL    HW285926   9.004   8.762   1.931
27027SOL     OW85927   7.912   9.191   2.185
27027SOL    HW185928   7.945   9.230   2.271
27027SOL    HW285929   7.988   9.184   2.120
27028SOL     OW85930   7.697   9.233   3.103
27028SOL    HW185931   7.754   9.168   3.153
27028SOL    HW285932   7.681   9.200   3.010
27029SOL     OW85933   8.388   9.146   2.766
27029SOL    HW185934   8.468   9.089   2.787
27029SOL    HW285935   8.339   9.106   2.689
27030SOL     OW85936   7.830   8.148   2.342
27030SOL    HW185937   7.875   8.058   2.339
27030SOL    HW285938   7.736   8.137   2.375
27031SOL     OW85939   8.995   7.670   3.591
27031SOL    HW185940   8.990   7.707   3.683
27031SOL    HW285941   8.923   7.601   3.579
27032SOL     OW85942   8.229   7.712   3.611
27032SOL    HW185943   8.296   7.651   3.654
27032SOL    HW285944   8.156   7.731   3.676
27033SOL     OW85945   8.799   8.038   3.295
27033SOL    HW185946   8.827   7.995   3.380
27033SOL    HW285947   8.824   8.134   3.296
27034SOL     OW85948   8.251   8.850   2.786
27034SOL    HW185949   8.341   8.864   2.744
27034SOL    HW285950   8.180   8.852   2.715
27035SOL     OW85951   8.370   7.951   2.761
27035SOL    HW185952   8.345   7.942   2.665
27035SOL    HW285953   8.418   7.869   2.792
27036SOL     OW85954   7.987   7.512   2.374
27036SOL    HW185955   7.906   7.513   2.432
27036SOL    HW285956   7.990   7.595   2.319
27037SOL     OW85957   8.882   8.636   1.903
27037SOL    HW185958   8.914   8.560   1.960
27037SOL    HW285959   8.790   8.663   1.933
27038SOL     OW85960   8.383   7.684   2.342
27038SOL    HW185961   8.335   7.725   2.264
27038SOL    HW285962   8.482   7.682   2.323
27039SOL     OW85963   8.524   8.131   3.326
27039SOL    HW185964   8.444   8.070   3.329
27039SOL    HW285965   8.605   8.078   3.302
27040SOL     OW85966   8.675   9.018   2.655
27040SOL    HW185967   8.696   9.092   2.590
27040SOL    HW285968   8.743   9.018   2.728
27041SOL     OW85969   7.907   8.600   2.603
27041SOL    HW185970   7.836   8.573   2.668
27041SOL    HW285971   7.881   8.572   2.510
27042SOL     OW85972   8.719   9.245   2.453
27042SOL    HW185973   8.763   9.309   2.389
27042SOL    HW285974   8.669   9.297   2.523
27043SOL     OW85975   8.480   7.997   1.878
27043SOL    HW185976   8.439   8.079   1.839
27043SOL    HW285977   8.544   8.023   1.951
27044SOL     OW85978   7.526   8.004   3.248
27044SOL    HW185979   7.618   8.003   3.207
27044SOL    HW285980   7.520   8.078   3.315
27045SOL     OW85981   8.009   7.670   3.009
27045SOL    HW185982   8.047   7.586   3.046
27045SOL    HW285983   7.921   7.689   3.053
27046SOL     OW85984   8.465   7.487   2.615
27046SOL    HW185985   8.393   7.492   2.546
27046SOL    HW285986   8.441   7.418   2.684
27047SOL     OW85987   8.877   8.621   2.729
27047SOL    HW185988   8.822   8.537   2.722
27047SOL    HW285989   8.903   8.650   2.637
27048SOL     OW85990   8.914   8.038   2.854
27048SOL    HW185991   8.884   7.943   2.861
27048SOL    HW285992   8.987   8.054   2.920
27049SOL     OW85993   9.305   8.281   2.239
27049SOL    HW185994   9.347   8.217   2.303
27049SOL    HW285995   9.267   8.230   2.161
27050SOL     OW85996   7.936   8.833   2.036
27050SOL    HW185997   7.849   8.818   2.083
27050SOL    HW285998   7.919   8.859   1.941
27051SOL     OW85999   8.838   8.023   1.940
27051SOL    HW186000   8.784   8.002   2.021
27051SOL    HW286001   8.929   7.982   1.949
27052SOL     OW86002   7.975   7.704   2.190
27052SOL    HW186003   8.002   7.645   2.115
27052SOL    HW286004   7.975   7.799   2.159
27053SOL     OW86005   9.202   8.671   3.450
27053SOL    HW186006   9.293   8.632   3.437
27053SOL    HW286007   9.210   8.767   3.474
27054SOL     OW86008   9.040   9.077   3.487
27054SOL    HW186009   9.067   9.111   3.397
27054SOL    HW286010   9.119   9.039   3.533
27055SOL     OW86011   8.559   8.643   2.962
27055SOL    HW186012   8.519   8.687   3.043
27055SOL    HW286013   8.518   8.680   2.879
27056SOL     OW86014   9.086   8.547   2.941
27056SOL    HW186015   9.091   8.628   3.000
27056SOL    HW286016   9.000   8.549   2.890
27057SOL     OW86017   8.363   7.537   3.264
27057SOL    HW186018   8.388   7.517   3.169
27057SOL    HW286019   8.435   7.593   3.306
27058SOL     OW86020   8.153   8.498   2.230
27058SOL    HW186021   8.139   8.505   2.329
27058SOL    HW286022   8.237   8.447   2.212
27059SOL     OW86023   7.858   8.261   3.113
27059SOL    HW186024   7.944   8.273   3.163
27059SOL    HW286025   7.816   8.174   3.140
27060SOL     OW86026   8.722   7.834   3.124
27060SOL    HW186027   8.743   7.908   3.188
27060SOL    HW286028   8.633   7.851   3.081
27061SOL     OW86029   7.512   9.012   3.193
27061SOL    HW186030   7.466   9.094   3.159
27061SOL    HW286031   7.610   9.031   3.202
27062SOL     OW86032   7.815   8.548   2.363
27062SOL    HW186033   7.808   8.631   2.307
27062SOL    HW286034   7.819   8.468   2.303
27063SOL     OW86035   8.014   7.985   2.727
27063SOL    HW186036   8.026   8.051   2.653
27063SOL    HW286037   8.060   8.019   2.810
27064SOL     OW86038   8.700   8.796   2.250
27064SOL    HW186039   8.750   8.873   2.290
27064SOL    HW286040   8.605   8.798   2.282
27065SOL     OW86041   8.720   8.893   3.004
27065SOL    HW186042   8.767   8.906   3.091
27065SOL    HW286043   8.654   8.819   3.013
27066SOL     OW86044   9.030   8.087   2.334
27066SOL    HW186045   8.999   8.148   2.407
27066SOL    HW286046   9.080   8.139   2.265
27067SOL     OW86047   7.802   8.958   3.191
27067SOL    HW186048   7.781   8.914   3.104
27067SOL    HW286049   7.899   8.984   3.194
27068SOL     OW86050   7.850   8.199   3.460
27068SOL    HW186051   7.918   8.254   3.413
27068SOL    HW286052   7.890   8.111   3.487
27069SOL     OW86053   9.035   8.227   3.532
27069SOL    HW186054   8.943   8.265   3.527
27069SOL    HW286055   9.095   8.274   3.467
27070SOL     OW86056   8.461   7.553   3.632
27070SOL    HW186057   8.467   7.638   3.580
27070SOL    HW286058   8.493   7.477   3.575
27071SOL     OW86059   7.952   7.498   3.602
27071SOL    HW186060   7.910   7.441   3.532
27071SOL    HW286061   7.886   7.567   3.634
27072SOL     OW86062   8.021   8.318   2.891
27072SOL    HW186063   8.065   8.407   2.882
27072SOL    HW286064   7.958   8.318   2.968
27073SOL     OW86065   8.808   8.310   2.907
27073SOL    HW186066   8.733   8.310   2.841
27073SOL    HW286067   8.845   8.218   2.916
27074SOL     OW86068   8.657   7.973   2.137
27074SOL    HW186069   8.670   7.889   2.191
27074SOL    HW286070   8.628   8.047   2.197
27075SOL     OW86071   7.755   7.661   3.093
27075SOL    HW186072   7.732   7.698   3.183
27075SOL    HW286073   7.725   7.566   3.087
27076SOL     OW86074   7.485   8.758   3.144
27076SOL    HW186075   7.538   8.709   3.212
27076SOL    HW286076   7.507   8.856   3.149
27077SOL     OW86077   9.176   8.383   3.716
27077SOL    HW186078   9.130   8.376   3.627
27077SOL    HW286079   9.114   8.427   3.782
27078SOL     OW86080   7.755   7.511   2.480
27078SOL    HW186081   7.744   7.605   2.513
27078SOL    HW286082   7.750   7.448   2.557
27079SOL     OW86083   8.428   9.021   3.562
27079SOL    HW186084   8.408   9.065   3.474
27079SOL    HW286085   8.467   8.930   3.546
27080SOL     OW86086   7.798   8.346   3.666
27080SOL    HW186087   7.874   8.390   3.714
27080SOL    HW286088   7.833   8.299   3.584
27081SOL     OW86089   8.751   8.286   1.904
27081SOL    HW186090   8.785   8.193   1.919
27081SOL    HW286091   8.769   8.313   1.809
27082SOL     OW86092   8.516   8.781   2.711
27082SOL    HW186093   8.523   8.697   2.656
27082SOL    HW286094   8.578   8.850   2.675
27083SOL     OW86095   7.767   8.258   2.811
27083SOL    HW186096   7.860   8.294   2.816
27083SOL    HW286097   7.761   8.173   2.863
27084SOL     OW86098   7.787   7.957   2.868
27084SOL    HW186099   7.735   7.874   2.851
27084SOL    HW286100   7.864   7.962   2.804
27085SOL     OW86101   8.586   7.828   3.540
27085SOL    HW186102   8.541   7.891   3.604
27085SOL    HW286103   8.679   7.859   3.523
27086SOL     OW86104   8.608   7.655   3.339
27086SOL    HW186105   8.608   7.719   3.416
27086SOL    HW286106   8.636   7.703   3.256
27087SOL     OW86107   7.456   8.774   2.062
27087SOL    HW186108   7.363   8.795   2.031
27087SOL    HW286109   7.466   8.675   2.075
27088SOL     OW86110   7.536   9.249   2.789
27088SOL    HW186111   7.494   9.163   2.762
27088SOL    HW286112   7.630   9.252   2.755
27089SOL     OW86113   7.488   7.992   2.976
27089SOL    HW186114   7.573   7.959   2.935
27089SOL    HW286115   7.501   8.007   3.074
27090SOL     OW86116   7.637   7.968   3.584
27090SOL    HW186117   7.696   7.928   3.514
27090SOL    HW286118   7.579   8.039   3.543
27091SOL     OW86119   8.817   8.398   3.522
27091SOL    HW186120   8.856   8.487   3.542
27091SOL    HW286121   8.827   8.378   3.425
27092SOL     OW86122   8.263   8.020   2.187
27092SOL    HW186123   8.270   7.931   2.141
27092SOL    HW286124   8.169   8.054   2.179
27093SOL     OW86125   7.700   9.012   3.606
27093SOL    HW186126   7.670   9.069   3.682
27093SOL    HW286127   7.693   8.915   3.632
27094SOL     OW86128   8.119   7.912   3.131
27094SOL    HW186129   8.085   7.823   3.101
27094SOL    HW286130   8.145   7.966   3.051
27095SOL     OW86131   8.378   9.126   3.327
27095SOL    HW186132   8.354   9.108   3.232
27095SOL    HW286133   8.408   9.220   3.337
27096SOL     OW86134   7.921   7.948   2.053
27096SOL    HW186135   7.982   8.028   2.057
27096SOL    HW286136   7.826   7.979   2.060
27097SOL     OW86137   7.607   8.585   3.328
27097SOL    HW186138   7.629   8.524   3.404
27097SOL    HW286139   7.617   8.536   3.242
27098SOL     OW86140   8.795   8.507   3.096
27098SOL    HW186141   8.819   8.444   3.022
27098SOL    HW286142   8.705   8.547   3.078
27099SOL     OW86143   8.750   8.303   2.171
27099SOL    HW186144   8.664   8.272   2.213
27099SOL    HW286145   8.746   8.289   2.072
27100SOL     OW86146   9.207   9.195   3.016
27100SOL    HW186147   9.268   9.225   2.943
27100SOL    HW286148   9.169   9.106   2.994
27101SOL     OW86149   8.700   9.179   2.990
27101SOL    HW186150   8.784   9.184   2.936
27101SOL    HW286151   8.677   9.083   3.008
27102SOL     OW86152   7.531   8.706   2.884
27102SOL    HW186153   7.526   8.705   2.984
27102SOL    HW286154   7.448   8.665   2.846
27103SOL     OW86155   8.136   9.110   3.578
27103SOL    HW186156   8.080   9.191   3.587
27103SOL    HW286157   8.188   9.114   3.492
27104SOL     OW86158   8.836   9.021   2.339
27104SOL    HW186159   8.903   9.033   2.265
27104SOL    HW286160   8.796   9.110   2.362
27105SOL     OW86161   7.578   9.242   3.713
27105SOL    HW186162   7.537   9.168   3.766
27105SOL    HW286163   7.642   9.293   3.771
27106SOL     OW86164   8.728   8.375   2.534
27106SOL    HW186165   8.788   8.294   2.536
27106SOL    HW286166   8.768   8.444   2.474
27107SOL     OW86167   8.120   9.064   2.016
27107SOL    HW186168   8.129   9.074   1.917
27107SOL    HW286169   8.080   8.975   2.037
27108SOL     OW86170   9.098   9.168   3.256
27108SOL    HW186171   9.151   9.178   3.172
27108SOL    HW286172   9.071   9.258   3.290
27109SOL     OW86173   9.289   7.623   2.825
27109SOL    HW186174   9.328   7.538   2.789
27109SOL    HW286175   9.191   7.625   2.806
27110SOL     OW86176   7.711   7.774   2.582
27110SOL    HW186177   7.632   7.825   2.548
27110SOL    HW286178   7.702   7.759   2.680
27111SOL     OW86179   8.642   9.060   1.893
27111SOL    HW186180   8.648   8.967   1.930
27111SOL    HW286181   8.583   9.060   1.813
27112SOL     OW86182   8.270   8.450   3.234
27112SOL    HW186183   8.310   8.449   3.142
27112SOL    HW286184   8.280   8.542   3.274
27113SOL     OW86185   8.364   8.358   2.153
27113SOL    HW186186   8.427   8.396   2.085
27113SOL    HW286187   8.404   8.275   2.192
27114SOL     OW86188   8.952   9.055   1.906
27114SOL    HW186189   8.860   9.092   1.913
27114SOL    HW286190   8.990   9.075   1.816
27115SOL     OW86191   7.820   8.736   3.352
27115SOL    HW186192   7.807   8.829   3.318
27115SOL    HW286193   7.736   8.684   3.339
27116SOL     OW86194   9.062   8.740   3.151
27116SOL    HW186195   9.122   8.743   3.231
27116SOL    HW286196   8.987   8.804   3.164
27117SOL     OW86197   8.462   7.684   2.833
27117SOL    HW186198   8.454   7.648   2.740
27117SOL    HW286199   8.460   7.608   2.898
27118SOL     OW86200   7.703   8.796   2.152
27118SOL    HW186201   7.607   8.797   2.125
27118SOL    HW286202   7.715   8.849   2.236
27119SOL     OW86203   7.553   8.461   3.588
27119SOL    HW186204   7.476   8.428   3.642
27119SOL    HW286205   7.638   8.431   3.630
27120SOL     OW86206   8.120   7.651   3.351
27120SOL    HW186207   8.210   7.635   3.311
27120SOL    HW286208   8.128   7.656   3.450
27121SOL     OW86209   7.523   7.793   1.895
27121SOL    HW186210   7.431   7.765   1.866
27121SOL    HW286211   7.554   7.870   1.839
27122SOL     OW86212   8.888   8.304   3.260
27122SOL    HW186213   8.831   8.356   3.197
27122SOL    HW286214   8.984   8.316   3.236
27123SOL     OW86215   7.520   7.614   2.180
27123SOL    HW186216   7.503   7.697   2.126
27123SOL    HW286217   7.610   7.577   2.158
27124SOL     OW86218   8.631   8.783   1.981
27124SOL    HW186219   8.532   8.772   1.983
27124SOL    HW286220   8.665   8.798   2.074
27125SOL     OW86221   8.061   8.290   3.293
27125SOL    HW186222   8.117   8.371   3.276
27125SOL    HW286223   8.120   8.210   3.296
27126SOL     OW86224   8.941   9.215   2.821
27126SOL    HW186225   8.974   9.279   2.752
27126SOL    HW286226   9.007   9.209   2.896
27127SOL     OW86227   8.164   8.013   3.570
27127SOL    HW186228   8.183   8.078   3.644
27127SOL    HW286229   8.224   7.933   3.579
27128SOL     OW86230   8.898   8.668   3.495
27128SOL    HW186231   8.889   8.658   3.594
27128SOL    HW286232   8.994   8.661   3.469
27129SOL     OW86233   7.838   9.189   3.422
27129SOL    HW186234   7.747   9.230   3.420
27129SOL    HW286235   7.831   9.095   3.454
27130SOL     OW86236   9.122   8.331   3.116
27130SOL    HW186237   9.095   8.242   3.079
27130SOL    HW286238   9.123   8.399   3.043
27131SOL     OW86239   8.673   7.773   2.311
27131SOL    HW186240   8.738   7.699   2.300
27131SOL    HW286241   8.693   7.823   2.395
27132SOL     OW86242   9.225   7.790   3.504
27132SOL    HW186243   9.208   7.821   3.410
27132SOL    HW286244   9.141   7.753   3.542
27133SOL     OW86245   9.178   8.382   3.379
27133SOL    HW186246   9.216   8.473   3.394
27133SOL    HW286247   9.170   8.365   3.280
27134SOL     OW86248   8.307   8.822   1.878
27134SOL    HW186249   8.261   8.837   1.966
27134SOL    HW286250   8.351   8.907   1.848
27135SOL     OW86251   8.531   8.432   1.949
27135SOL    HW186252   8.508   8.485   1.867
27135SOL    HW286253   8.612   8.376   1.930
27136SOL     OW86254   9.309   9.017   2.713
27136SOL    HW186255   9.238   9.005   2.643
27136SOL    HW286256   9.310   8.938   2.773
27137SOL     OW86257   7.669   8.762   3.706
27137SOL    HW186258   7.604   8.689   3.685
27137SOL    HW286259   7.673   8.776   3.804
27138SOL     OW86260   7.527   8.688   2.515
27138SOL    HW186261   7.526   8.641   2.603
27138SOL    HW286262   7.609   8.660   2.464
27139SOL     OW86263   8.120   8.839   3.486
27139SOL    HW186264   8.042   8.789   3.524
27139SOL    HW286265   8.117   8.934   3.517
27140SOL     OW86266   7.876   7.872   2.382
27140SOL    HW186267   7.906   7.800   2.320
27140SOL    HW286268   7.837   7.832   2.465
27141SOL     OW86269   9.153   8.935   2.966
27141SOL    HW186270   9.060   8.910   2.939
27141SOL    HW286271   9.179   8.885   3.048
27142SOL     OW86272   7.765   7.995   3.142
27142SOL    HW186273   7.803   7.936   3.214
27142SOL    HW286274   7.805   7.969   3.054
27143SOL     OW86275   8.872   7.662   2.974
27143SOL    HW186276   8.924   7.597   3.029
27143SOL    HW286277   8.823   7.725   3.035
27144SOL     OW86278   8.449   7.482   3.016
27144SOL    HW186279   8.386   7.410   2.985
27144SOL    HW286280   8.542   7.446   3.016
27145SOL     OW86281   8.218   8.778   2.163
27145SOL    HW186282   8.172   8.691   2.180
27145SOL    HW286283   8.309   8.775   2.204
27146SOL     OW86284   8.066   9.015   3.146
27146SOL    HW186285   8.061   9.097   3.203
27146SOL    HW286286   8.155   9.012   3.101
27147SOL     OW86287   8.800   7.500   2.030
27147SOL    HW186288   8.835   7.459   1.946
27147SOL    HW286289   8.710   7.462   2.050
27148SOL     OW86290   8.748   7.901   2.553
27148SOL    HW186291   8.689   7.981   2.557
27148SOL    HW286292   8.763   7.866   2.646
27149SOL     OW86293   9.041   7.669   2.744
27149SOL    HW186294   8.957   7.668   2.798
27149SOL    HW286295   9.043   7.752   2.688
27150SOL     OW86296   7.487   8.525   2.162
27150SOL    HW186297   7.586   8.514   2.153
27150SOL    HW286298   7.447   8.439   2.194
27151SOL     OW86299   7.678   8.076   3.837
27151SOL    HW186300   7.585   8.074   3.874
27151SOL    HW286301   7.679   8.037   3.745
27152SOL     OW86302   7.673   7.723   4.720
27152SOL    HW186303   7.708   7.706   4.812
27152SOL    HW286304   7.585   7.678   4.708
27153SOL     OW86305   7.467   7.816   4.371
27153SOL    HW186306   7.385   7.859   4.410
27153SOL    HW286307   7.439   7.743   4.308
27154SOL     OW86308   8.017   8.723   4.889
27154SOL    HW186309   7.924   8.716   4.852
27154SOL    HW286310   8.028   8.812   4.933
27155SOL     OW86311   9.003   8.959   4.427
27155SOL    HW186312   8.946   8.943   4.508
27155SOL    HW286313   8.944   8.969   4.347
27156SOL     OW86314   9.203   8.055   3.955
27156SOL    HW186315   9.191   8.042   3.856
27156SOL    HW286316   9.173   7.974   4.004
27157SOL     OW86317   8.216   8.592   4.747
27157SOL    HW186318   8.138   8.609   4.807
27157SOL    HW286319   8.250   8.679   4.711
27158SOL     OW86320   8.298   8.246   5.547
27158SOL    HW186321   8.294   8.322   5.612
27158SOL    HW286322   8.320   8.282   5.456
27159SOL     OW86323   8.133   8.460   4.389
27159SOL    HW186324   8.202   8.444   4.459
27159SOL    HW286325   8.060   8.517   4.427
27160SOL     OW86326   8.134   8.609   5.527
27160SOL    HW186327   8.194   8.688   5.541
27160SOL    HW286328   8.048   8.640   5.486
27161SOL     OW86329   7.783   8.883   4.785
27161SOL    HW186330   7.705   8.852   4.732
27161SOL    HW286331   7.841   8.941   4.728
27162SOL     OW86332   8.908   8.953   5.063
27162SOL    HW186333   8.932   9.047   5.089
27162SOL    HW286334   8.892   8.899   5.145
27163SOL     OW86335   7.886   7.840   5.223
27163SOL    HW186336   7.968   7.784   5.232
27163SOL    HW286337   7.805   7.782   5.227
27164SOL     OW86338   7.679   9.161   4.207
27164SOL    HW186339   7.713   9.238   4.261
27164SOL    HW286340   7.723   9.161   4.117
27165SOL     OW86341   8.575   8.789   5.414
27165SOL    HW186342   8.622   8.789   5.502
27165SOL    HW286343   8.527   8.702   5.403
27166SOL     OW86344   7.678   8.882   4.262
27166SOL    HW186345   7.652   8.978   4.262
27166SOL    HW286346   7.607   8.828   4.307
27167SOL     OW86347   7.688   8.539   4.610
27167SOL    HW186348   7.702   8.455   4.662
27167SOL    HW286349   7.633   8.603   4.665
27168SOL     OW86350   8.068   9.234   5.163
27168SOL    HW186351   7.976   9.217   5.198
27168SOL    HW286352   8.096   9.326   5.189
27169SOL     OW86353   8.054   8.412   3.847
27169SOL    HW186354   8.061   8.496   3.793
27169SOL    HW286355   8.100   8.425   3.935
27170SOL     OW86356   9.042   7.562   5.204
27170SOL    HW186357   9.024   7.629   5.132
27170SOL    HW286358   9.039   7.608   5.293
27171SOL     OW86359   7.570   8.091   4.287
27171SOL    HW186360   7.525   8.003   4.304
27171SOL    HW286361   7.569   8.145   4.371
27172SOL     OW86362   9.290   9.215   4.083
27172SOL    HW186363   9.344   9.186   4.163
27172SOL    HW286364   9.320   9.305   4.054
27173SOL     OW86365   7.475   9.044   3.841
27173SOL    HW186366   7.456   8.948   3.862
27173SOL    HW286367   7.442   9.102   3.916
27174SOL     OW86368   9.137   8.370   4.336
27174SOL    HW186369   9.232   8.341   4.344
27174SOL    HW286370   9.129   8.435   4.261
27175SOL     OW86371   9.089   8.556   4.156
27175SOL    HW186372   9.175   8.558   4.104
27175SOL    HW286373   9.103   8.603   4.244
27176SOL     OW86374   7.561   8.185   5.321
27176SOL    HW186375   7.649   8.172   5.366
27176SOL    HW286376   7.548   8.282   5.299
27177SOL     OW86377   8.061   8.813   4.450
27177SOL    HW186378   8.012   8.726   4.459
27177SOL    HW286379   8.038   8.856   4.363
27178SOL     OW86380   8.741   8.676   5.147
27178SOL    HW186381   8.778   8.603   5.089
27178SOL    HW286382   8.793   8.681   5.232
27179SOL     OW86383   8.257   7.452   4.226
27179SOL    HW186384   8.297   7.543   4.217
27179SOL    HW286385   8.157   7.460   4.232
27180SOL     OW86386   7.645   8.424   4.988
27180SOL    HW186387   7.734   8.379   4.974
27180SOL    HW286388   7.572   8.359   4.969
27181SOL     OW86389   8.973   8.447   3.914
27181SOL    HW186390   8.910   8.371   3.927
27181SOL    HW286391   9.021   8.465   4.000
27182SOL     OW86392   7.765   7.699   5.525
27182SOL    HW186393   7.836   7.770   5.531
27182SOL    HW286394   7.677   7.738   5.553
27183SOL     OW86395   8.914   8.865   4.677
27183SOL    HW186396   8.855   8.871   4.757
27183SOL    HW286397   8.899   8.777   4.631
27184SOL     OW86398   9.115   9.162   4.296
27184SOL    HW186399   9.074   9.139   4.208
27184SOL    HW286400   9.097   9.088   4.361
27185SOL     OW86401   8.046   8.177   3.994
27185SOL    HW186402   8.070   8.246   3.926
27185SOL    HW286403   7.968   8.210   4.048
27186SOL     OW86404   8.729   7.793   4.668
27186SOL    HW186405   8.643   7.743   4.655
27186SOL    HW286406   8.791   7.739   4.724
27187SOL     OW86407   9.024   9.110   4.031
27187SOL    HW186408   9.113   9.156   4.034
27187SOL    HW286409   9.003   9.086   3.936
27188SOL     OW86410   8.255   8.053   5.189
27188SOL    HW186411   8.208   8.050   5.278
27188SOL    HW286412   8.204   7.998   5.123
27189SOL     OW86413   8.842   7.917   5.398
27189SOL    HW186414   8.822   7.960   5.486
27189SOL    HW286415   8.920   7.855   5.407
27190SOL     OW86416   8.421   8.338   5.296
27190SOL    HW186417   8.467   8.254   5.267
27190SOL    HW286418   8.365   8.372   5.221
27191SOL     OW86419   8.439   7.858   4.966
27191SOL    HW186420   8.362   7.892   5.020
27191SOL    HW286421   8.405   7.807   4.887
27192SOL     OW86422   8.489   8.149   4.153
27192SOL    HW186423   8.515   8.145   4.249
27192SOL    HW286424   8.404   8.098   4.139
27193SOL     OW86425   7.524   8.259   4.513
27193SOL    HW186426   7.623   8.247   4.522
27193SOL    HW286427   7.500   8.354   4.534
27194SOL     OW86428   7.578   9.269   5.295
27194SOL    HW186429   7.568   9.254   5.394
27194SOL    HW286430   7.492   9.305   5.259
27195SOL     OW86431   8.313   7.796   3.919
27195SOL    HW186432   8.372   7.859   3.870
27195SOL    HW286433   8.332   7.702   3.890
27196SOL     OW86434   9.167   8.033   5.555
27196SOL    HW186435   9.141   8.122   5.519
27196SOL    HW286436   9.165   7.965   5.482
27197SOL     OW86437   8.810   8.592   4.269
27197SOL    HW186438   8.893   8.563   4.221
27197SOL    HW286439   8.761   8.659   4.213
27198SOL     OW86440   7.998   7.644   4.609
27198SOL    HW186441   7.993   7.639   4.709
27198SOL    HW286442   8.000   7.740   4.580
27199SOL     OW86443   8.456   8.904   4.201
27199SOL    HW186444   8.410   8.976   4.149
27199SOL    HW286445   8.452   8.924   4.299
27200SOL     OW86446   9.243   8.514   4.597
27200SOL    HW186447   9.181   8.499   4.521
27200SOL    HW286448   9.191   8.525   4.682
27201SOL     OW86449   8.675   8.998   5.230
27201SOL    HW186450   8.681   8.921   5.294
27201SOL    HW286451   8.623   8.972   5.150
27202SOL     OW86452   7.769   8.391   3.966
27202SOL    HW186453   7.851   8.430   3.924
27202SOL    HW286454   7.742   8.309   3.917
27203SOL     OW86455   7.909   8.714   5.451
27203SOL    HW186456   7.859   8.715   5.365
27203SOL    HW286457   7.846   8.696   5.527
27204SOL     OW86458   7.650   7.733   5.222
27204SOL    HW186459   7.570   7.793   5.209
27204SOL    HW286460   7.640   7.684   5.308
27205SOL     OW86461   9.080   8.825   3.805
27205SOL    HW186462   9.048   8.919   3.795
27205SOL    HW286463   9.004   8.762   3.793
27206SOL     OW86464   7.912   9.191   4.047
27206SOL    HW186465   7.945   9.230   4.133
27206SOL    HW286466   7.988   9.184   3.982
27207SOL     OW86467   8.848   7.555   4.150
27207SOL    HW186468   8.824   7.518   4.060
27207SOL    HW286469   8.947   7.571   4.154
27208SOL     OW86470   7.697   9.233   4.965
27208SOL    HW186471   7.754   9.168   5.015
27208SOL    HW286472   7.681   9.200   4.872
27209SOL     OW86473   8.388   9.146   4.628
27209SOL    HW186474   8.468   9.089   4.649
27209SOL    HW286475   8.339   9.106   4.551
27210SOL     OW86476   7.830   8.148   4.204
27210SOL    HW186477   7.875   8.058   4.201
27210SOL    HW286478   7.736   8.137   4.237
27211SOL     OW86479   8.995   7.670   5.453
27211SOL    HW186480   8.990   7.707   5.545
27211SOL    HW286481   8.923   7.601   5.441
27212SOL     OW86482   8.062   7.570   3.841
27212SOL    HW186483   8.160   7.548   3.848
27212SOL    HW286484   8.031   7.553   3.748
27213SOL     OW86485   8.229   7.712   5.473
27213SOL    HW186486   8.296   7.651   5.516
27213SOL    HW286487   8.156   7.731   5.538
27214SOL     OW86488   8.336   8.962   4.919
27214SOL    HW186489   8.313   8.937   4.825
27214SOL    HW286490   8.397   8.893   4.958
27215SOL     OW86491   8.799   8.038   5.157
27215SOL    HW186492   8.827   7.995   5.242
27215SOL    HW286493   8.824   8.134   5.158
27216SOL     OW86494   8.251   8.850   4.648
27216SOL    HW186495   8.341   8.864   4.606
27216SOL    HW286496   8.180   8.852   4.577
27217SOL     OW86497   8.370   7.951   4.623
27217SOL    HW186498   8.345   7.942   4.527
27217SOL    HW286499   8.418   7.869   4.654
27218SOL     OW86500   7.987   7.512   4.236
27218SOL    HW186501   7.906   7.513   4.294
27218SOL    HW286502   7.990   7.595   4.181
27219SOL     OW86503   8.882   8.636   3.765
27219SOL    HW186504   8.914   8.560   3.822
27219SOL    HW286505   8.790   8.663   3.795
27220SOL     OW86506   7.745   7.483   3.895
27220SOL    HW186507   7.794   7.567   3.874
27220SOL    HW286508   7.807   7.418   3.940
27221SOL     OW86509   8.383   7.684   4.204
27221SOL    HW186510   8.335   7.725   4.126
27221SOL    HW286511   8.482   7.682   4.185
27222SOL     OW86512   8.524   8.131   5.188
27222SOL    HW186513   8.444   8.070   5.191
27222SOL    HW286514   8.605   8.078   5.164
27223SOL     OW86515   8.675   9.018   4.517
27223SOL    HW186516   8.696   9.092   4.452
27223SOL    HW286517   8.743   9.018   4.590
27224SOL     OW86518   7.907   8.600   4.465
27224SOL    HW186519   7.836   8.573   4.530
27224SOL    HW286520   7.881   8.572   4.372
27225SOL     OW86521   8.719   9.245   4.315
27225SOL    HW186522   8.763   9.309   4.251
27225SOL    HW286523   8.669   9.297   4.385
27226SOL     OW86524   8.480   7.997   3.740
27226SOL    HW186525   8.439   8.079   3.701
27226SOL    HW286526   8.544   8.023   3.813
27227SOL     OW86527   7.526   8.004   5.110
27227SOL    HW186528   7.618   8.003   5.069
27227SOL    HW286529   7.520   8.078   5.177
27228SOL     OW86530   8.009   7.670   4.871
27228SOL    HW186531   8.047   7.586   4.908
27228SOL    HW286532   7.921   7.689   4.915
27229SOL     OW86533   8.314   7.902   4.366
27229SOL    HW186534   8.282   7.974   4.304
27229SOL    HW286535   8.338   7.821   4.313
27230SOL     OW86536   8.465   7.487   4.477
27230SOL    HW186537   8.393   7.492   4.408
27230SOL    HW286538   8.441   7.418   4.546
27231SOL     OW86539   8.877   8.621   4.591
27231SOL    HW186540   8.822   8.537   4.584
27231SOL    HW286541   8.903   8.650   4.499
27232SOL     OW86542   8.914   8.038   4.716
27232SOL    HW186543   8.884   7.943   4.723
27232SOL    HW286544   8.987   8.054   4.782
27233SOL     OW86545   9.305   8.281   4.101
27233SOL    HW186546   9.347   8.217   4.165
27233SOL    HW286547   9.267   8.230   4.023
27234SOL     OW86548   7.936   8.833   3.898
27234SOL    HW186549   7.849   8.818   3.945
27234SOL    HW286550   7.919   8.859   3.803
27235SOL     OW86551   9.112   8.728   4.381
27235SOL    HW186552   9.211   8.736   4.395
27235SOL    HW286553   9.067   8.812   4.412
27236SOL     OW86554   8.838   8.023   3.802
27236SOL    HW186555   8.784   8.002   3.883
27236SOL    HW286556   8.929   7.982   3.811
27237SOL     OW86557   7.975   7.704   4.052
27237SOL    HW186558   8.002   7.645   3.977
27237SOL    HW286559   7.975   7.799   4.021
27238SOL     OW86560   9.202   8.671   5.312
27238SOL    HW186561   9.293   8.632   5.299
27238SOL    HW286562   9.210   8.767   5.336
27239SOL     OW86563   8.512   8.795   5.064
27239SOL    HW186564   8.432   8.772   5.119
27239SOL    HW286565   8.595   8.769   5.113
27240SOL     OW86566   9.040   9.077   5.349
27240SOL    HW186567   9.067   9.111   5.259
27240SOL    HW286568   9.119   9.039   5.395
27241SOL     OW86569   8.559   8.643   4.824
27241SOL    HW186570   8.519   8.687   4.905
27241SOL    HW286571   8.518   8.680   4.741
27242SOL     OW86572   9.086   8.547   4.803
27242SOL    HW186573   9.091   8.628   4.862
27242SOL    HW286574   9.000   8.549   4.752
27243SOL     OW86575   8.363   7.537   5.126
27243SOL    HW186576   8.388   7.517   5.031
27243SOL    HW286577   8.435   7.593   5.168
27244SOL     OW86578   8.428   8.564   5.443
27244SOL    HW186579   8.329   8.570   5.453
27244SOL    HW286580   8.451   8.484   5.387
27245SOL     OW86581   8.153   8.498   4.092
27245SOL    HW186582   8.139   8.505   4.191
27245SOL    HW286583   8.237   8.447   4.074
27246SOL     OW86584   7.858   8.261   4.975
27246SOL    HW186585   7.944   8.273   5.025
27246SOL    HW286586   7.816   8.174   5.002
27247SOL     OW86587   8.722   7.834   4.986
27247SOL    HW186588   8.743   7.908   5.050
27247SOL    HW286589   8.633   7.851   4.943
27248SOL     OW86590   7.512   9.012   5.055
27248SOL    HW186591   7.466   9.094   5.021
27248SOL    HW286592   7.610   9.031   5.064
27249SOL     OW86593   7.815   8.548   4.225
27249SOL    HW186594   7.808   8.631   4.169
27249SOL    HW286595   7.819   8.468   4.165
27250SOL     OW86596   8.700   8.796   4.112
27250SOL    HW186597   8.750   8.873   4.152
27250SOL    HW286598   8.605   8.798   4.144
27251SOL     OW86599   8.720   8.893   4.866
27251SOL    HW186600   8.767   8.906   4.953
27251SOL    HW286601   8.654   8.819   4.875
27252SOL     OW86602   7.802   8.958   5.053
27252SOL    HW186603   7.781   8.914   4.966
27252SOL    HW286604   7.899   8.984   5.056
27253SOL     OW86605   7.850   8.199   5.322
27253SOL    HW186606   7.918   8.254   5.275
27253SOL    HW286607   7.890   8.111   5.349
27254SOL     OW86608   9.035   8.227   5.394
27254SOL    HW186609   8.943   8.265   5.389
27254SOL    HW286610   9.095   8.274   5.329
27255SOL     OW86611   8.461   7.553   5.494
27255SOL    HW186612   8.467   7.638   5.442
27255SOL    HW286613   8.493   7.477   5.437
27256SOL     OW86614   7.952   7.498   5.464
27256SOL    HW186615   7.910   7.441   5.394
27256SOL    HW286616   7.886   7.567   5.496
27257SOL     OW86617   8.021   8.318   4.753
27257SOL    HW186618   8.065   8.407   4.744
27257SOL    HW286619   7.958   8.318   4.830
27258SOL     OW86620   8.808   8.310   4.769
27258SOL    HW186621   8.733   8.310   4.703
27258SOL    HW286622   8.845   8.218   4.778
27259SOL     OW86623   8.657   7.973   3.999
27259SOL    HW186624   8.670   7.889   4.053
27259SOL    HW286625   8.628   8.047   4.059
27260SOL     OW86626   7.755   7.661   4.955
27260SOL    HW186627   7.732   7.698   5.045
27260SOL    HW286628   7.725   7.566   4.949
27261SOL     OW86629   7.485   8.758   5.006
27261SOL    HW186630   7.538   8.709   5.074
27261SOL    HW286631   7.507   8.856   5.011
27262SOL     OW86632   8.180   8.082   4.788
27262SOL    HW186633   8.239   8.056   4.712
27262SOL    HW286634   8.152   8.178   4.777
27263SOL     OW86635   9.176   8.383   5.578
27263SOL    HW186636   9.130   8.376   5.489
27263SOL    HW286637   9.114   8.427   5.644
27264SOL     OW86638   7.755   7.511   4.342
27264SOL    HW186639   7.744   7.605   4.375
27264SOL    HW286640   7.750   7.448   4.419
27265SOL     OW86641   8.471   8.214   4.690
27265SOL    HW186642   8.486   8.235   4.786
27265SOL    HW286643   8.441   8.119   4.681
27266SOL     OW86644   8.428   9.021   5.424
27266SOL    HW186645   8.408   9.065   5.336
27266SOL    HW286646   8.467   8.930   5.408
27267SOL     OW86647   9.307   8.966   5.329
27267SOL    HW186648   9.321   8.993   5.234
27267SOL    HW286649   9.390   8.988   5.382
27268SOL     OW86650   7.798   8.346   5.528
27268SOL    HW186651   7.874   8.390   5.576
27268SOL    HW286652   7.833   8.299   5.446
27269SOL     OW86653   8.751   8.286   3.766
27269SOL    HW186654   8.785   8.193   3.781
27269SOL    HW286655   8.769   8.313   3.671
27270SOL     OW86656   8.516   8.781   4.573
27270SOL    HW186657   8.523   8.697   4.518
27270SOL    HW286658   8.578   8.850   4.537
27271SOL     OW86659   7.767   8.258   4.673
27271SOL    HW186660   7.860   8.294   4.678
27271SOL    HW286661   7.761   8.173   4.725
27272SOL     OW86662   7.787   7.957   4.730
27272SOL    HW186663   7.735   7.874   4.713
27272SOL    HW286664   7.864   7.962   4.666
27273SOL     OW86665   8.586   7.828   5.402
27273SOL    HW186666   8.541   7.891   5.466
27273SOL    HW286667   8.679   7.859   5.385
27274SOL     OW86668   8.608   7.655   5.201
27274SOL    HW186669   8.608   7.719   5.278
27274SOL    HW286670   8.636   7.703   5.118
27275SOL     OW86671   7.456   8.774   3.924
27275SOL    HW186672   7.363   8.795   3.893
27275SOL    HW286673   7.466   8.675   3.937
27276SOL     OW86674   7.536   9.249   4.651
27276SOL    HW186675   7.494   9.163   4.624
27276SOL    HW286676   7.630   9.252   4.617
27277SOL     OW86677   7.952   9.016   4.634
27277SOL    HW186678   8.018   9.090   4.643
27277SOL    HW286679   7.996   8.937   4.592
27278SOL     OW86680   8.450   8.244   4.962
27278SOL    HW186681   8.491   8.212   5.048
27278SOL    HW286682   8.354   8.217   4.959
27279SOL     OW86683   7.488   7.992   4.838
27279SOL    HW186684   7.573   7.959   4.797
27279SOL    HW286685   7.501   8.007   4.936
27280SOL     OW86686   7.637   7.968   5.446
27280SOL    HW186687   7.696   7.928   5.376
27280SOL    HW286688   7.579   8.039   5.405
27281SOL     OW86689   8.817   8.398   5.384
27281SOL    HW186690   8.856   8.487   5.404
27281SOL    HW286691   8.827   8.378   5.287
27282SOL     OW86692   8.263   8.020   4.049
27282SOL    HW186693   8.270   7.931   4.003
27282SOL    HW286694   8.169   8.054   4.041
27283SOL     OW86695   9.105   8.052   4.930
27283SOL    HW186696   9.067   7.983   4.992
27283SOL    HW286697   9.187   8.016   4.886
27284SOL     OW86698   7.700   9.012   5.468
27284SOL    HW186699   7.670   9.069   5.544
27284SOL    HW286700   7.693   8.915   5.494
27285SOL     OW86701   8.119   7.912   4.993
27285SOL    HW186702   8.085   7.823   4.963
27285SOL    HW286703   8.145   7.966   4.913
27286SOL     OW86704   8.378   9.126   5.189
27286SOL    HW186705   8.354   9.108   5.094
27286SOL    HW286706   8.408   9.220   5.199
27287SOL     OW86707   7.921   7.948   3.915
27287SOL    HW186708   7.982   8.028   3.919
27287SOL    HW286709   7.826   7.979   3.922
27288SOL     OW86710   7.607   8.585   5.190
27288SOL    HW186711   7.629   8.524   5.266
27288SOL    HW286712   7.617   8.536   5.104
27289SOL     OW86713   8.795   8.507   4.958
27289SOL    HW186714   8.819   8.444   4.884
27289SOL    HW286715   8.705   8.547   4.940
27290SOL     OW86716   8.750   8.303   4.033
27290SOL    HW186717   8.664   8.272   4.075
27290SOL    HW286718   8.746   8.289   3.934
27291SOL     OW86719   9.207   9.195   4.878
27291SOL    HW186720   9.268   9.225   4.805
27291SOL    HW286721   9.169   9.106   4.856
27292SOL     OW86722   8.700   9.179   4.852
27292SOL    HW186723   8.784   9.184   4.798
27292SOL    HW286724   8.677   9.083   4.870
27293SOL     OW86725   7.531   8.706   4.746
27293SOL    HW186726   7.526   8.705   4.846
27293SOL    HW286727   7.448   8.665   4.708
27294SOL     OW86728   8.136   9.110   5.440
27294SOL    HW186729   8.080   9.191   5.449
27294SOL    HW286730   8.188   9.114   5.354
27295SOL     OW86731   9.174   7.583   4.247
27295SOL    HW186732   9.247   7.566   4.180
27295SOL    HW286733   9.143   7.496   4.285
27296SOL     OW86734   8.836   9.021   4.201
27296SOL    HW186735   8.903   9.033   4.127
27296SOL    HW286736   8.796   9.110   4.224
27297SOL     OW86737   7.578   9.242   5.575
27297SOL    HW186738   7.537   9.168   5.628
27297SOL    HW286739   7.642   9.293   5.633
27298SOL     OW86740   8.728   8.375   4.396
27298SOL    HW186741   8.788   8.294   4.398
27298SOL    HW286742   8.768   8.444   4.336
27299SOL     OW86743   8.278   8.721   5.146
27299SOL    HW186744   8.273   8.754   5.241
27299SOL    HW286745   8.192   8.740   5.100
27300SOL     OW86746   8.120   9.064   3.878
27300SOL    HW186747   8.129   9.074   3.779
27300SOL    HW286748   8.080   8.975   3.899
27301SOL     OW86749   9.098   9.168   5.118
27301SOL    HW186750   9.151   9.178   5.034
27301SOL    HW286751   9.071   9.258   5.152
27302SOL     OW86752   9.289   7.623   4.687
27302SOL    HW186753   9.328   7.538   4.651
27302SOL    HW286754   9.191   7.625   4.668
27303SOL     OW86755   7.711   7.774   4.444
27303SOL    HW186756   7.632   7.825   4.410
27303SOL    HW286757   7.702   7.759   4.542
27304SOL     OW86758   8.642   9.060   3.755
27304SOL    HW186759   8.648   8.967   3.792
27304SOL    HW286760   8.583   9.060   3.675
27305SOL     OW86761   8.270   8.450   5.096
27305SOL    HW186762   8.310   8.449   5.004
27305SOL    HW286763   8.280   8.542   5.136
27306SOL     OW86764   8.364   8.358   4.015
27306SOL    HW186765   8.427   8.396   3.947
27306SOL    HW286766   8.404   8.275   4.054
27307SOL     OW86767   8.952   9.055   3.768
27307SOL    HW186768   8.860   9.092   3.775
27307SOL    HW286769   8.990   9.075   3.678
27308SOL     OW86770   7.820   8.736   5.214
27308SOL    HW186771   7.807   8.829   5.180
27308SOL    HW286772   7.736   8.684   5.201
27309SOL     OW86773   9.062   8.740   5.013
27309SOL    HW186774   9.122   8.743   5.093
27309SOL    HW286775   8.987   8.804   5.026
27310SOL     OW86776   8.487   8.546   4.420
27310SOL    HW186777   8.417   8.499   4.474
27310SOL    HW286778   8.546   8.478   4.377
27311SOL     OW86779   8.462   7.684   4.695
27311SOL    HW186780   8.454   7.648   4.602
27311SOL    HW286781   8.460   7.608   4.760
27312SOL     OW86782   8.038   8.935   4.215
27312SOL    HW186783   8.080   8.877   4.145
27312SOL    HW286784   7.994   9.014   4.171
27313SOL     OW86785   9.157   7.833   5.105
27313SOL    HW186786   9.230   7.902   5.109
27313SOL    HW286787   9.185   7.758   5.046
27314SOL     OW86788   7.703   8.796   4.014
27314SOL    HW186789   7.607   8.797   3.987
27314SOL    HW286790   7.715   8.849   4.098
27315SOL     OW86791   7.553   8.461   5.450
27315SOL    HW186792   7.476   8.428   5.504
27315SOL    HW286793   7.638   8.431   5.492
27316SOL     OW86794   8.120   7.651   5.213
27316SOL    HW186795   8.210   7.635   5.173
27316SOL    HW286796   8.128   7.656   5.312
27317SOL     OW86797   7.523   7.793   3.757
27317SOL    HW186798   7.431   7.765   3.728
27317SOL    HW286799   7.554   7.870   3.701
27318SOL     OW86800   8.888   8.304   5.122
27318SOL    HW186801   8.831   8.356   5.059
27318SOL    HW286802   8.984   8.316   5.098
27319SOL     OW86803   7.520   7.614   4.042
27319SOL    HW186804   7.503   7.697   3.988
27319SOL    HW286805   7.610   7.577   4.020
27320SOL     OW86806   8.631   8.783   3.843
27320SOL    HW186807   8.532   8.772   3.845
27320SOL    HW286808   8.665   8.798   3.936
27321SOL     OW86809   8.061   8.290   5.155
27321SOL    HW186810   8.117   8.371   5.138
27321SOL    HW286811   8.120   8.210   5.158
27322SOL     OW86812   8.941   9.215   4.683
27322SOL    HW186813   8.974   9.279   4.614
27322SOL    HW286814   9.007   9.209   4.758
27323SOL     OW86815   8.164   8.013   5.432
27323SOL    HW186816   8.183   8.078   5.506
27323SOL    HW286817   8.224   7.933   5.441
27324SOL     OW86818   8.898   8.668   5.357
27324SOL    HW186819   8.889   8.658   5.456
27324SOL    HW286820   8.994   8.661   5.331
27325SOL     OW86821   9.122   8.331   4.978
27325SOL    HW186822   9.095   8.242   4.941
27325SOL    HW286823   9.123   8.399   4.905
27326SOL     OW86824   8.042   8.193   4.376
27326SOL    HW186825   8.092   8.278   4.357
27326SOL    HW286826   7.954   8.195   4.328
27327SOL     OW86827   9.225   7.790   5.366
27327SOL    HW186828   9.208   7.821   5.272
27327SOL    HW286829   9.141   7.753   5.404
27328SOL     OW86830   9.178   8.382   5.241
27328SOL    HW186831   9.216   8.473   5.256
27328SOL    HW286832   9.170   8.365   5.142
27329SOL     OW86833   8.307   8.822   3.740
27329SOL    HW186834   8.261   8.837   3.828
27329SOL    HW286835   8.351   8.907   3.710
27330SOL     OW86836   8.109   9.238   4.677
27330SOL    HW186837   8.063   9.326   4.664
27330SOL    HW286838   8.208   9.250   4.670
27331SOL     OW86839   8.307   8.404   4.585
27331SOL    HW186840   8.361   8.335   4.633
27331SOL    HW286841   8.275   8.473   4.651
27332SOL     OW86842   8.531   8.432   3.811
27332SOL    HW186843   8.508   8.485   3.729
27332SOL    HW286844   8.612   8.376   3.792
27333SOL     OW86845   9.309   9.017   4.575
27333SOL    HW186846   9.238   9.005   4.505
27333SOL    HW286847   9.310   8.938   4.635
27334SOL     OW86848   7.669   8.762   5.568
27334SOL    HW186849   7.604   8.689   5.547
27334SOL    HW286850   7.673   8.776   5.666
27335SOL     OW86851   7.527   8.688   4.377
27335SOL    HW186852   7.526   8.641   4.465
27335SOL    HW286853   7.609   8.660   4.326
27336SOL     OW86854   8.120   8.839   5.348
27336SOL    HW186855   8.042   8.789   5.386
27336SOL    HW286856   8.117   8.934   5.379
27337SOL     OW86857   9.272   7.640   4.951
27337SOL    HW186858   9.268   7.550   4.995
27337SOL    HW286859   9.275   7.629   4.852
27338SOL     OW86860   7.876   7.872   4.244
27338SOL    HW186861   7.906   7.800   4.182
27338SOL    HW286862   7.837   7.832   4.327
27339SOL     OW86863   9.153   8.935   4.828
27339SOL    HW186864   9.060   8.910   4.801
27339SOL    HW286865   9.179   8.885   4.910
27340SOL     OW86866   7.765   7.995   5.004
27340SOL    HW186867   7.803   7.936   5.076
27340SOL    HW286868   7.805   7.969   4.916
27341SOL     OW86869   8.260   9.034   4.411
27341SOL    HW186870   8.292   9.044   4.317
27341SOL    HW286871   8.181   8.972   4.413
27342SOL     OW86872   8.872   7.662   4.836
27342SOL    HW186873   8.924   7.597   4.891
27342SOL    HW286874   8.823   7.725   4.897
27343SOL     OW86875   8.449   7.482   4.878
27343SOL    HW186876   8.386   7.410   4.847
27343SOL    HW286877   8.542   7.446   4.878
27344SOL     OW86878   8.218   8.778   4.025
27344SOL    HW186879   8.172   8.691   4.042
27344SOL    HW286880   8.309   8.775   4.066
27345SOL     OW86881   8.066   9.015   5.008
27345SOL    HW186882   8.061   9.097   5.065
27345SOL    HW286883   8.155   9.012   4.963
27346SOL     OW86884   8.800   7.500   3.892
27346SOL    HW186885   8.835   7.459   3.808
27346SOL    HW286886   8.710   7.462   3.912
27347SOL     OW86887   9.041   7.669   4.606
27347SOL    HW186888   8.957   7.668   4.660
27347SOL    HW286889   9.043   7.752   4.550
27348SOL     OW86890   7.487   8.525   4.024
27348SOL    HW186891   7.586   8.514   4.015
27348SOL    HW286892   7.447   8.439   4.056
27349SOL     OW86893   8.323   9.094   4.061
27349SOL    HW186894   8.246   9.059   4.007
27349SOL    HW286895   8.291   9.165   4.123
27350SOL     OW86896   7.678   8.076   5.699
27350SOL    HW186897   7.585   8.074   5.736
27350SOL    HW286898   7.679   8.037   5.607
27351SOL     OW86899   7.673   7.723   6.582
27351SOL    HW186900   7.708   7.706   6.674
27351SOL    HW286901   7.585   7.678   6.570
27352SOL     OW86902   7.467   7.816   6.233
27352SOL    HW186903   7.385   7.859   6.272
27352SOL    HW286904   7.439   7.743   6.170
27353SOL     OW86905   8.017   8.723   6.751
27353SOL    HW186906   7.924   8.716   6.714
27353SOL    HW286907   8.028   8.812   6.795
27354SOL     OW86908   9.003   8.959   6.289
27354SOL    HW186909   8.946   8.943   6.370
27354SOL    HW286910   8.944   8.969   6.209
27355SOL     OW86911   8.583   8.151   6.303
27355SOL    HW186912   8.640   8.229   6.278
27355SOL    HW286913   8.523   8.177   6.379
27356SOL     OW86914   9.203   8.055   5.817
27356SOL    HW186915   9.191   8.042   5.718
27356SOL    HW286916   9.173   7.974   5.866
27357SOL     OW86917   8.298   8.246   7.409
27357SOL    HW186918   8.294   8.322   7.474
27357SOL    HW286919   8.320   8.282   7.318
27358SOL     OW86920   8.133   8.460   6.251
27358SOL    HW186921   8.202   8.444   6.321
27358SOL    HW286922   8.060   8.517   6.289
27359SOL     OW86923   8.134   8.609   7.389
27359SOL    HW186924   8.194   8.688   7.403
27359SOL    HW286925   8.048   8.640   7.348
27360SOL     OW86926   7.783   8.883   6.647
27360SOL    HW186927   7.705   8.852   6.594
27360SOL    HW286928   7.841   8.941   6.590
27361SOL     OW86929   8.908   8.953   6.925
27361SOL    HW186930   8.932   9.047   6.951
27361SOL    HW286931   8.892   8.899   7.007
27362SOL     OW86932   7.886   7.840   7.085
27362SOL    HW186933   7.968   7.784   7.094
27362SOL    HW286934   7.805   7.782   7.089
27363SOL     OW86935   9.051   7.895   6.323
27363SOL    HW186936   8.977   7.941   6.273
27363SOL    HW286937   9.102   7.963   6.376
27364SOL     OW86938   7.679   9.161   6.069
27364SOL    HW186939   7.713   9.238   6.123
27364SOL    HW286940   7.723   9.161   5.979
27365SOL     OW86941   8.575   8.789   7.276
27365SOL    HW186942   8.622   8.789   7.364
27365SOL    HW286943   8.527   8.702   7.265
27366SOL     OW86944   7.678   8.882   6.124
27366SOL    HW186945   7.652   8.978   6.124
27366SOL    HW286946   7.607   8.828   6.169
27367SOL     OW86947   7.688   8.539   6.472
27367SOL    HW186948   7.702   8.455   6.524
27367SOL    HW286949   7.633   8.603   6.527
27368SOL     OW86950   8.068   9.234   7.025
27368SOL    HW186951   7.976   9.217   7.060
27368SOL    HW286952   8.096   9.326   7.051
27369SOL     OW86953   8.054   8.412   5.709
27369SOL    HW186954   8.061   8.496   5.655
27369SOL    HW286955   8.100   8.425   5.797
27370SOL     OW86956   9.042   7.562   7.066
27370SOL    HW186957   9.024   7.629   6.994
27370SOL    HW286958   9.039   7.608   7.155
27371SOL     OW86959   7.570   8.091   6.149
27371SOL    HW186960   7.525   8.003   6.166
27371SOL    HW286961   7.569   8.145   6.233
27372SOL     OW86962   7.475   9.044   5.703
27372SOL    HW186963   7.456   8.948   5.724
27372SOL    HW286964   7.442   9.102   5.778
27373SOL     OW86965   9.137   8.370   6.198
27373SOL    HW186966   9.232   8.341   6.206
27373SOL    HW286967   9.129   8.435   6.123
27374SOL     OW86968   9.089   8.556   6.018
27374SOL    HW186969   9.175   8.558   5.966
27374SOL    HW286970   9.103   8.603   6.106
27375SOL     OW86971   7.561   8.185   7.183
27375SOL    HW186972   7.649   8.172   7.228
27375SOL    HW286973   7.548   8.282   7.161
27376SOL     OW86974   8.741   8.676   7.009
27376SOL    HW186975   8.778   8.603   6.951
27376SOL    HW286976   8.793   8.681   7.094
27377SOL     OW86977   8.257   7.452   6.088
27377SOL    HW186978   8.297   7.543   6.079
27377SOL    HW286979   8.157   7.460   6.094
27378SOL     OW86980   7.645   8.424   6.850
27378SOL    HW186981   7.734   8.379   6.836
27378SOL    HW286982   7.572   8.359   6.831
27379SOL     OW86983   8.973   8.447   5.776
27379SOL    HW186984   8.910   8.371   5.789
27379SOL    HW286985   9.021   8.465   5.862
27380SOL     OW86986   7.765   7.699   7.387
27380SOL    HW186987   7.836   7.770   7.393
27380SOL    HW286988   7.677   7.738   7.415
27381SOL     OW86989   8.914   8.865   6.539
27381SOL    HW186990   8.855   8.871   6.619
27381SOL    HW286991   8.899   8.777   6.493
27382SOL     OW86992   9.115   9.162   6.158
27382SOL    HW186993   9.074   9.139   6.070
27382SOL    HW286994   9.097   9.088   6.223
27383SOL     OW86995   8.046   8.177   5.856
27383SOL    HW186996   8.070   8.246   5.788
27383SOL    HW286997   7.968   8.210   5.910
27384SOL     OW86998   8.729   7.793   6.530
27384SOL    HW186999   8.643   7.743   6.517
27384SOL    HW287000   8.791   7.739   6.586
27385SOL     OW87001   9.024   9.110   5.893
27385SOL    HW187002   9.113   9.156   5.896
27385SOL    HW287003   9.003   9.086   5.798
27386SOL     OW87004   8.842   7.917   7.260
27386SOL    HW187005   8.822   7.960   7.348
27386SOL    HW287006   8.920   7.855   7.269
27387SOL     OW87007   8.439   7.858   6.828
27387SOL    HW187008   8.362   7.892   6.882
27387SOL    HW287009   8.405   7.807   6.749
27388SOL     OW87010   8.489   8.149   6.015
27388SOL    HW187011   8.515   8.145   6.111
27388SOL    HW287012   8.404   8.098   6.001
27389SOL     OW87013   7.524   8.259   6.375
27389SOL    HW187014   7.623   8.247   6.384
27389SOL    HW287015   7.500   8.354   6.396
27390SOL     OW87016   7.578   9.269   7.157
27390SOL    HW187017   7.568   9.254   7.256
27390SOL    HW287018   7.492   9.305   7.121
27391SOL     OW87019   8.313   7.796   5.781
27391SOL    HW187020   8.372   7.859   5.732
27391SOL    HW287021   8.332   7.702   5.752
27392SOL     OW87022   9.167   8.033   7.417
27392SOL    HW187023   9.141   8.122   7.381
27392SOL    HW287024   9.165   7.965   7.344
27393SOL     OW87025   8.810   8.592   6.131
27393SOL    HW187026   8.893   8.563   6.083
27393SOL    HW287027   8.761   8.659   6.075
27394SOL     OW87028   7.998   7.644   6.471
27394SOL    HW187029   7.993   7.639   6.571
27394SOL    HW287030   8.000   7.740   6.442
27395SOL     OW87031   8.456   8.904   6.063
27395SOL    HW187032   8.410   8.976   6.011
27395SOL    HW287033   8.452   8.924   6.161
27396SOL     OW87034   7.799   9.249   6.439
27396SOL    HW187035   7.849   9.163   6.445
27396SOL    HW287036   7.864   9.326   6.436
27397SOL     OW87037   9.243   8.514   6.459
27397SOL    HW187038   9.181   8.499   6.383
27397SOL    HW287039   9.191   8.525   6.544
27398SOL     OW87040   8.675   8.998   7.092
27398SOL    HW187041   8.681   8.921   7.156
27398SOL    HW287042   8.623   8.972   7.012
27399SOL     OW87043   7.769   8.391   5.828
27399SOL    HW187044   7.851   8.430   5.786
27399SOL    HW287045   7.742   8.309   5.779
27400SOL     OW87046   8.906   8.183   6.314
27400SOL    HW187047   8.901   8.118   6.389
27400SOL    HW287048   8.986   8.242   6.327
27401SOL     OW87049   7.909   8.714   7.313
27401SOL    HW187050   7.859   8.715   7.227
27401SOL    HW287051   7.846   8.696   7.389
27402SOL     OW87052   8.559   9.224   5.823
27402SOL    HW187053   8.499   9.162   5.873
27402SOL    HW287054   8.590   9.180   5.738
27403SOL     OW87055   7.650   7.733   7.084
27403SOL    HW187056   7.570   7.793   7.071
27403SOL    HW287057   7.640   7.684   7.170
27404SOL     OW87058   9.080   8.825   5.667
27404SOL    HW187059   9.048   8.919   5.657
27404SOL    HW287060   9.004   8.762   5.655
27405SOL     OW87061   7.912   9.191   5.909
27405SOL    HW187062   7.945   9.230   5.995
27405SOL    HW287063   7.988   9.184   5.844
27406SOL     OW87064   8.848   7.555   6.012
27406SOL    HW187065   8.824   7.518   5.922
27406SOL    HW287066   8.947   7.571   6.016
27407SOL     OW87067   7.697   9.233   6.827
27407SOL    HW187068   7.754   9.168   6.877
27407SOL    HW287069   7.681   9.200   6.734
27408SOL     OW87070   7.830   8.148   6.066
27408SOL    HW187071   7.875   8.058   6.063
27408SOL    HW287072   7.736   8.137   6.099
27409SOL     OW87073   8.995   7.670   7.315
27409SOL    HW187074   8.990   7.707   7.407
27409SOL    HW287075   8.923   7.601   7.303
27410SOL     OW87076   8.062   7.570   5.703
27410SOL    HW187077   8.160   7.548   5.710
27410SOL    HW287078   8.031   7.553   5.610
27411SOL     OW87079   8.229   7.712   7.335
27411SOL    HW187080   8.296   7.651   7.378
27411SOL    HW287081   8.156   7.731   7.400
27412SOL     OW87082   8.336   8.962   6.781
27412SOL    HW187083   8.313   8.937   6.687
27412SOL    HW287084   8.397   8.893   6.820
27413SOL     OW87085   8.799   8.038   7.019
27413SOL    HW187086   8.827   7.995   7.104
27413SOL    HW287087   8.824   8.134   7.020
27414SOL     OW87088   8.251   8.850   6.510
27414SOL    HW187089   8.341   8.864   6.468
27414SOL    HW287090   8.180   8.852   6.439
27415SOL     OW87091   8.370   7.951   6.485
27415SOL    HW187092   8.345   7.942   6.389
27415SOL    HW287093   8.418   7.869   6.516
27416SOL     OW87094   7.987   7.512   6.098
27416SOL    HW187095   7.906   7.513   6.156
27416SOL    HW287096   7.990   7.595   6.043
27417SOL     OW87097   8.882   8.636   5.627
27417SOL    HW187098   8.914   8.560   5.684
27417SOL    HW287099   8.790   8.663   5.657
27418SOL     OW87100   7.745   7.483   5.757
27418SOL    HW187101   7.794   7.567   5.736
27418SOL    HW287102   7.807   7.418   5.802
27419SOL     OW87103   8.383   7.684   6.066
27419SOL    HW187104   8.335   7.725   5.988
27419SOL    HW287105   8.482   7.682   6.047
27420SOL     OW87106   8.524   8.131   7.050
27420SOL    HW187107   8.444   8.070   7.053
27420SOL    HW287108   8.605   8.078   7.026
27421SOL     OW87109   8.675   9.018   6.379
27421SOL    HW187110   8.696   9.092   6.314
27421SOL    HW287111   8.743   9.018   6.452
27422SOL     OW87112   7.907   8.600   6.327
27422SOL    HW187113   7.836   8.573   6.392
27422SOL    HW287114   7.881   8.572   6.234
27423SOL     OW87115   8.719   9.245   6.177
27423SOL    HW187116   8.763   9.309   6.113
27423SOL    HW287117   8.669   9.297   6.247
27424SOL     OW87118   8.480   7.997   5.602
27424SOL    HW187119   8.439   8.079   5.563
27424SOL    HW287120   8.544   8.023   5.675
27425SOL     OW87121   7.526   8.004   6.972
27425SOL    HW187122   7.618   8.003   6.931
27425SOL    HW287123   7.520   8.078   7.039
27426SOL     OW87124   8.009   7.670   6.733
27426SOL    HW187125   8.047   7.586   6.770
27426SOL    HW287126   7.921   7.689   6.777
27427SOL     OW87127   8.314   7.902   6.228
27427SOL    HW187128   8.282   7.974   6.166
27427SOL    HW287129   8.338   7.821   6.175
27428SOL     OW87130   8.877   8.621   6.453
27428SOL    HW187131   8.822   8.537   6.446
27428SOL    HW287132   8.903   8.650   6.361
27429SOL     OW87133   8.914   8.038   6.578
27429SOL    HW187134   8.884   7.943   6.585
27429SOL    HW287135   8.987   8.054   6.644
27430SOL     OW87136   9.305   8.281   5.963
27430SOL    HW187137   9.347   8.217   6.027
27430SOL    HW287138   9.267   8.230   5.885
27431SOL     OW87139   7.936   8.833   5.760
27431SOL    HW187140   7.849   8.818   5.807
27431SOL    HW287141   7.919   8.859   5.665
27432SOL     OW87142   9.112   8.728   6.243
27432SOL    HW187143   9.211   8.736   6.257
27432SOL    HW287144   9.067   8.812   6.274
27433SOL     OW87145   8.838   8.023   5.664
27433SOL    HW187146   8.784   8.002   5.745
27433SOL    HW287147   8.929   7.982   5.673
27434SOL     OW87148   7.975   7.704   5.914
27434SOL    HW187149   8.002   7.645   5.839
27434SOL    HW287150   7.975   7.799   5.883
27435SOL     OW87151   9.202   8.671   7.174
27435SOL    HW187152   9.293   8.632   7.161
27435SOL    HW287153   9.210   8.767   7.198
27436SOL     OW87154   8.512   8.795   6.926
27436SOL    HW187155   8.432   8.772   6.981
27436SOL    HW287156   8.595   8.769   6.975
27437SOL     OW87157   9.040   9.077   7.211
27437SOL    HW187158   9.067   9.111   7.121
27437SOL    HW287159   9.119   9.039   7.257
27438SOL     OW87160   8.559   8.643   6.686
27438SOL    HW187161   8.519   8.687   6.767
27438SOL    HW287162   8.518   8.680   6.603
27439SOL     OW87163   9.086   8.547   6.665
27439SOL    HW187164   9.091   8.628   6.724
27439SOL    HW287165   9.000   8.549   6.614
27440SOL     OW87166   8.363   7.537   6.988
27440SOL    HW187167   8.388   7.517   6.893
27440SOL    HW287168   8.435   7.593   7.030
27441SOL     OW87169   8.428   8.564   7.305
27441SOL    HW187170   8.329   8.570   7.315
27441SOL    HW287171   8.451   8.484   7.249
27442SOL     OW87172   8.153   8.498   5.954
27442SOL    HW187173   8.139   8.505   6.053
27442SOL    HW287174   8.237   8.447   5.936
27443SOL     OW87175   7.858   8.261   6.837
27443SOL    HW187176   7.944   8.273   6.887
27443SOL    HW287177   7.816   8.174   6.864
27444SOL     OW87178   8.722   7.834   6.848
27444SOL    HW187179   8.743   7.908   6.912
27444SOL    HW287180   8.633   7.851   6.805
27445SOL     OW87181   7.512   9.012   6.917
27445SOL    HW187182   7.466   9.094   6.883
27445SOL    HW287183   7.610   9.031   6.926
27446SOL     OW87184   7.815   8.548   6.087
27446SOL    HW187185   7.808   8.631   6.031
27446SOL    HW287186   7.819   8.468   6.027
27447SOL     OW87187   8.014   7.985   6.451
27447SOL    HW187188   8.026   8.051   6.377
27447SOL    HW287189   8.060   8.019   6.534
27448SOL     OW87190   8.700   8.796   5.974
27448SOL    HW187191   8.750   8.873   6.014
27448SOL    HW287192   8.605   8.798   6.006
27449SOL     OW87193   8.720   8.893   6.728
27449SOL    HW187194   8.767   8.906   6.815
27449SOL    HW287195   8.654   8.819   6.737
27450SOL     OW87196   9.030   8.087   6.058
27450SOL    HW187197   8.999   8.148   6.131
27450SOL    HW287198   9.080   8.139   5.989
27451SOL     OW87199   7.802   8.958   6.915
27451SOL    HW187200   7.781   8.914   6.828
27451SOL    HW287201   7.899   8.984   6.918
27452SOL     OW87202   7.850   8.199   7.184
27452SOL    HW187203   7.918   8.254   7.137
27452SOL    HW287204   7.890   8.111   7.211
27453SOL     OW87205   9.035   8.227   7.256
27453SOL    HW187206   8.943   8.265   7.251
27453SOL    HW287207   9.095   8.274   7.191
27454SOL     OW87208   8.461   7.553   7.356
27454SOL    HW187209   8.467   7.638   7.304
27454SOL    HW287210   8.493   7.477   7.299
27455SOL     OW87211   7.952   7.498   7.326
27455SOL    HW187212   7.910   7.441   7.256
27455SOL    HW287213   7.886   7.567   7.358
27456SOL     OW87214   8.808   8.310   6.631
27456SOL    HW187215   8.733   8.310   6.565
27456SOL    HW287216   8.845   8.218   6.640
27457SOL     OW87217   8.657   7.973   5.861
27457SOL    HW187218   8.670   7.889   5.915
27457SOL    HW287219   8.628   8.047   5.921
27458SOL     OW87220   7.755   7.661   6.817
27458SOL    HW187221   7.732   7.698   6.907
27458SOL    HW287222   7.725   7.566   6.811
27459SOL     OW87223   7.485   8.758   6.868
27459SOL    HW187224   7.538   8.709   6.936
27459SOL    HW287225   7.507   8.856   6.873
27460SOL     OW87226   9.176   8.383   7.440
27460SOL    HW187227   9.130   8.376   7.351
27460SOL    HW287228   9.114   8.427   7.506
27461SOL     OW87229   7.755   7.511   6.204
27461SOL    HW187230   7.744   7.605   6.237
27461SOL    HW287231   7.750   7.448   6.281
27462SOL     OW87232   9.070   7.815   5.960
27462SOL    HW187233   9.072   7.739   6.024
27462SOL    HW287234   9.022   7.892   6.000
27463SOL     OW87235   8.428   9.021   7.286
27463SOL    HW187236   8.408   9.065   7.198
27463SOL    HW287237   8.467   8.930   7.270
27464SOL     OW87238   9.307   8.966   7.191
27464SOL    HW187239   9.321   8.993   7.096
27464SOL    HW287240   9.390   8.988   7.244
27465SOL     OW87241   7.798   8.346   7.390
27465SOL    HW187242   7.874   8.390   7.438
27465SOL    HW287243   7.833   8.299   7.308
27466SOL     OW87244   8.988   7.722   5.711
27466SOL    HW187245   8.927   7.647   5.734
27466SOL    HW287246   9.010   7.774   5.794
27467SOL     OW87247   8.751   8.286   5.628
27467SOL    HW187248   8.785   8.193   5.643
27467SOL    HW287249   8.769   8.313   5.533
27468SOL     OW87250   8.516   8.781   6.435
27468SOL    HW187251   8.523   8.697   6.380
27468SOL    HW287252   8.578   8.850   6.399
27469SOL     OW87253   7.767   8.258   6.535
27469SOL    HW187254   7.860   8.294   6.540
27469SOL    HW287255   7.761   8.173   6.587
27470SOL     OW87256   7.787   7.957   6.592
27470SOL    HW187257   7.735   7.874   6.575
27470SOL    HW287258   7.864   7.962   6.528
27471SOL     OW87259   8.586   7.828   7.264
27471SOL    HW187260   8.541   7.891   7.328
27471SOL    HW287261   8.679   7.859   7.247
27472SOL     OW87262   8.608   7.655   7.063
27472SOL    HW187263   8.608   7.719   7.140
27472SOL    HW287264   8.636   7.703   6.980
27473SOL     OW87265   7.456   8.774   5.786
27473SOL    HW187266   7.363   8.795   5.755
27473SOL    HW287267   7.466   8.675   5.799
27474SOL     OW87268   7.536   9.249   6.513
27474SOL    HW187269   7.494   9.163   6.486
27474SOL    HW287270   7.630   9.252   6.479
27475SOL     OW87271   7.488   7.992   6.700
27475SOL    HW187272   7.573   7.959   6.659
27475SOL    HW287273   7.501   8.007   6.798
27476SOL     OW87274   7.637   7.968   7.308
27476SOL    HW187275   7.696   7.928   7.238
27476SOL    HW287276   7.579   8.039   7.267
27477SOL     OW87277   8.817   8.398   7.246
27477SOL    HW187278   8.856   8.487   7.266
27477SOL    HW287279   8.827   8.378   7.149
27478SOL     OW87280   8.263   8.020   5.911
27478SOL    HW187281   8.270   7.931   5.865
27478SOL    HW287282   8.169   8.054   5.903
27479SOL     OW87283   9.105   8.052   6.792
27479SOL    HW187284   9.067   7.983   6.854
27479SOL    HW287285   9.187   8.016   6.748
27480SOL     OW87286   7.700   9.012   7.330
27480SOL    HW187287   7.670   9.069   7.406
27480SOL    HW287288   7.693   8.915   7.356
27481SOL     OW87289   7.921   7.948   5.777
27481SOL    HW187290   7.982   8.028   5.781
27481SOL    HW287291   7.826   7.979   5.784
27482SOL     OW87292   7.607   8.585   7.052
27482SOL    HW187293   7.629   8.524   7.128
27482SOL    HW287294   7.617   8.536   6.966
27483SOL     OW87295   8.795   8.507   6.820
27483SOL    HW187296   8.819   8.444   6.746
27483SOL    HW287297   8.705   8.547   6.802
27484SOL     OW87298   8.750   8.303   5.895
27484SOL    HW187299   8.664   8.272   5.937
27484SOL    HW287300   8.746   8.289   5.796
27485SOL     OW87301   9.207   9.195   6.740
27485SOL    HW187302   9.268   9.225   6.667
27485SOL    HW287303   9.169   9.106   6.718
27486SOL     OW87304   8.700   9.179   6.714
27486SOL    HW187305   8.784   9.184   6.660
27486SOL    HW287306   8.677   9.083   6.732
27487SOL     OW87307   7.531   8.706   6.608
27487SOL    HW187308   7.526   8.705   6.708
27487SOL    HW287309   7.448   8.665   6.570
27488SOL     OW87310   8.136   9.110   7.302
27488SOL    HW187311   8.080   9.191   7.311
27488SOL    HW287312   8.188   9.114   7.216
27489SOL     OW87313   9.174   7.583   6.109
27489SOL    HW187314   9.247   7.566   6.042
27489SOL    HW287315   9.143   7.496   6.147
27490SOL     OW87316   8.836   9.021   6.063
27490SOL    HW187317   8.903   9.033   5.989
27490SOL    HW287318   8.796   9.110   6.086
27491SOL     OW87319   7.578   9.242   7.437
27491SOL    HW187320   7.537   9.168   7.490
27491SOL    HW287321   7.642   9.293   7.495
27492SOL     OW87322   8.728   8.375   6.258
27492SOL    HW187323   8.788   8.294   6.260
27492SOL    HW287324   8.768   8.444   6.198
27493SOL     OW87325   8.278   8.721   7.008
27493SOL    HW187326   8.273   8.754   7.103
27493SOL    HW287327   8.192   8.740   6.962
27494SOL     OW87328   8.120   9.064   5.740
27494SOL    HW187329   8.129   9.074   5.641
27494SOL    HW287330   8.080   8.975   5.761
27495SOL     OW87331   9.098   9.168   6.980
27495SOL    HW187332   9.151   9.178   6.896
27495SOL    HW287333   9.071   9.258   7.014
27496SOL     OW87334   9.289   7.623   6.549
27496SOL    HW187335   9.328   7.538   6.513
27496SOL    HW287336   9.191   7.625   6.530
27497SOL     OW87337   7.711   7.774   6.306
27497SOL    HW187338   7.632   7.825   6.272
27497SOL    HW287339   7.702   7.759   6.404
27498SOL     OW87340   8.642   9.060   5.617
27498SOL    HW187341   8.648   8.967   5.654
27498SOL    HW287342   8.583   9.060   5.537
27499SOL     OW87343   8.364   8.358   5.877
27499SOL    HW187344   8.427   8.396   5.809
27499SOL    HW287345   8.404   8.275   5.916
27500SOL     OW87346   8.952   9.055   5.630
27500SOL    HW187347   8.860   9.092   5.637
27500SOL    HW287348   8.990   9.075   5.540
27501SOL     OW87349   7.820   8.736   7.076
27501SOL    HW187350   7.807   8.829   7.042
27501SOL    HW287351   7.736   8.684   7.063
27502SOL     OW87352   9.062   8.740   6.875
27502SOL    HW187353   9.122   8.743   6.955
27502SOL    HW287354   8.987   8.804   6.888
27503SOL     OW87355   8.487   8.546   6.282
27503SOL    HW187356   8.417   8.499   6.336
27503SOL    HW287357   8.546   8.478   6.239
27504SOL     OW87358   8.462   7.684   6.557
27504SOL    HW187359   8.454   7.648   6.464
27504SOL    HW287360   8.460   7.608   6.622
27505SOL     OW87361   9.157   7.833   6.967
27505SOL    HW187362   9.230   7.902   6.971
27505SOL    HW287363   9.185   7.758   6.908
27506SOL     OW87364   7.703   8.796   5.876
27506SOL    HW187365   7.607   8.797   5.849
27506SOL    HW287366   7.715   8.849   5.960
27507SOL     OW87367   7.553   8.461   7.312
27507SOL    HW187368   7.476   8.428   7.366
27507SOL    HW287369   7.638   8.431   7.354
27508SOL     OW87370   8.120   7.651   7.075
27508SOL    HW187371   8.210   7.635   7.035
27508SOL    HW287372   8.128   7.656   7.174
27509SOL     OW87373   7.523   7.793   5.619
27509SOL    HW187374   7.431   7.765   5.590
27509SOL    HW287375   7.554   7.870   5.563
27510SOL     OW87376   8.888   8.304   6.984
27510SOL    HW187377   8.831   8.356   6.921
27510SOL    HW287378   8.984   8.316   6.960
27511SOL     OW87379   7.520   7.614   5.904
27511SOL    HW187380   7.503   7.697   5.850
27511SOL    HW287381   7.610   7.577   5.882
27512SOL     OW87382   8.631   8.783   5.705
27512SOL    HW187383   8.532   8.772   5.707
27512SOL    HW287384   8.665   8.798   5.798
27513SOL     OW87385   8.061   8.290   7.017
27513SOL    HW187386   8.117   8.371   7.000
27513SOL    HW287387   8.120   8.210   7.020
27514SOL     OW87388   8.941   9.215   6.545
27514SOL    HW187389   8.974   9.279   6.476
27514SOL    HW287390   9.007   9.209   6.620
27515SOL     OW87391   8.164   8.013   7.294
27515SOL    HW187392   8.183   8.078   7.368
27515SOL    HW287393   8.224   7.933   7.303
27516SOL     OW87394   8.898   8.668   7.219
27516SOL    HW187395   8.889   8.658   7.318
27516SOL    HW287396   8.994   8.661   7.193
27517SOL     OW87397   7.838   9.189   7.146
27517SOL    HW187398   7.747   9.230   7.144
27517SOL    HW287399   7.831   9.095   7.178
27518SOL     OW87400   9.122   8.331   6.840
27518SOL    HW187401   9.095   8.242   6.803
27518SOL    HW287402   9.123   8.399   6.767
27519SOL     OW87403   8.673   7.773   6.035
27519SOL    HW187404   8.738   7.699   6.024
27519SOL    HW287405   8.693   7.823   6.119
27520SOL     OW87406   8.042   8.193   6.238
27520SOL    HW187407   8.092   8.278   6.219
27520SOL    HW287408   7.954   8.195   6.190
27521SOL     OW87409   9.225   7.790   7.228
27521SOL    HW187410   9.208   7.821   7.134
27521SOL    HW287411   9.141   7.753   7.266
27522SOL     OW87412   9.178   8.382   7.103
27522SOL    HW187413   9.216   8.473   7.118
27522SOL    HW287414   9.170   8.365   7.004
27523SOL     OW87415   8.307   8.822   5.602
27523SOL    HW187416   8.261   8.837   5.690
27523SOL    HW287417   8.351   8.907   5.572
27524SOL     OW87418   8.531   8.432   5.673
27524SOL    HW187419   8.508   8.485   5.591
27524SOL    HW287420   8.612   8.376   5.654
27525SOL     OW87421   9.309   9.017   6.437
27525SOL    HW187422   9.238   9.005   6.367
27525SOL    HW287423   9.310   8.938   6.497
27526SOL     OW87424   7.669   8.762   7.430
27526SOL    HW187425   7.604   8.689   7.409
27526SOL    HW287426   7.673   8.776   7.528
27527SOL     OW87427   7.527   8.688   6.239
27527SOL    HW187428   7.526   8.641   6.327
27527SOL    HW287429   7.609   8.660   6.188
27528SOL     OW87430   8.120   8.839   7.210
27528SOL    HW187431   8.042   8.789   7.248
27528SOL    HW287432   8.117   8.934   7.241
27529SOL     OW87433   9.272   7.640   6.813
27529SOL    HW187434   9.268   7.550   6.857
27529SOL    HW287435   9.275   7.629   6.714
27530SOL     OW87436   7.876   7.872   6.106
27530SOL    HW187437   7.906   7.800   6.044
27530SOL    HW287438   7.837   7.832   6.189
27531SOL     OW87439   9.153   8.935   6.690
27531SOL    HW187440   9.060   8.910   6.663
27531SOL    HW287441   9.179   8.885   6.772
27532SOL     OW87442   7.765   7.995   6.866
27532SOL    HW187443   7.803   7.936   6.938
27532SOL    HW287444   7.805   7.969   6.778
27533SOL     OW87445   8.872   7.662   6.698
27533SOL    HW187446   8.924   7.597   6.753
27533SOL    HW287447   8.823   7.725   6.759
27534SOL     OW87448   8.449   7.482   6.740
27534SOL    HW187449   8.386   7.410   6.709
27534SOL    HW287450   8.542   7.446   6.740
27535SOL     OW87451   8.218   8.778   5.887
27535SOL    HW187452   8.172   8.691   5.904
27535SOL    HW287453   8.309   8.775   5.928
27536SOL     OW87454   8.066   9.015   6.870
27536SOL    HW187455   8.061   9.097   6.927
27536SOL    HW287456   8.155   9.012   6.825
27537SOL     OW87457   8.748   7.901   6.277
27537SOL    HW187458   8.689   7.981   6.281
27537SOL    HW287459   8.763   7.866   6.370
27538SOL     OW87460   9.041   7.669   6.468
27538SOL    HW187461   8.957   7.668   6.522
27538SOL    HW287462   9.043   7.752   6.412
27539SOL     OW87463   7.487   8.525   5.886
27539SOL    HW187464   7.586   8.514   5.877
27539SOL    HW287465   7.447   8.439   5.918
27540SOL     OW87466   8.323   9.094   5.923
27540SOL    HW187467   8.246   9.059   5.869
27540SOL    HW287468   8.291   9.165   5.985
27541SOL     OW87469   7.678   8.076   7.561
27541SOL    HW187470   7.585   8.074   7.598
27541SOL    HW287471   7.679   8.037   7.469
27542SOL     OW87472   7.673   7.723   8.444
27542SOL    HW187473   7.708   7.706   8.536
27542SOL    HW287474   7.585   7.678   8.432
27543SOL     OW87475   7.467   7.816   8.095
27543SOL    HW187476   7.385   7.859   8.134
27543SOL    HW287477   7.439   7.743   8.032
27544SOL     OW87478   8.017   8.723   8.613
27544SOL    HW187479   7.924   8.716   8.576
27544SOL    HW287480   8.028   8.812   8.657
27545SOL     OW87481   9.003   8.959   8.151
27545SOL    HW187482   8.946   8.943   8.232
27545SOL    HW287483   8.944   8.969   8.071
27546SOL     OW87484   8.583   8.151   8.165
27546SOL    HW187485   8.640   8.229   8.140
27546SOL    HW287486   8.523   8.177   8.241
27547SOL     OW87487   9.203   8.055   7.679
27547SOL    HW187488   9.191   8.042   7.580
27547SOL    HW287489   9.173   7.974   7.728
27548SOL     OW87490   8.216   8.592   8.471
27548SOL    HW187491   8.138   8.609   8.531
27548SOL    HW287492   8.250   8.679   8.435
27549SOL     OW87493   8.298   8.246   9.271
27549SOL    HW187494   8.294   8.322   9.336
27549SOL    HW287495   8.320   8.282   9.180
27550SOL     OW87496   8.133   8.460   8.113
27550SOL    HW187497   8.202   8.444   8.183
27550SOL    HW287498   8.060   8.517   8.151
27551SOL     OW87499   8.134   8.609   9.251
27551SOL    HW187500   8.194   8.688   9.265
27551SOL    HW287501   8.048   8.640   9.210
27552SOL     OW87502   7.783   8.883   8.509
27552SOL    HW187503   7.705   8.852   8.456
27552SOL    HW287504   7.841   8.941   8.452
27553SOL     OW87505   8.908   8.953   8.787
27553SOL    HW187506   8.932   9.047   8.813
27553SOL    HW287507   8.892   8.899   8.869
27554SOL     OW87508   7.886   7.840   8.947
27554SOL    HW187509   7.968   7.784   8.956
27554SOL    HW287510   7.805   7.782   8.951
27555SOL     OW87511   9.051   7.895   8.185
27555SOL    HW187512   8.977   7.941   8.135
27555SOL    HW287513   9.102   7.963   8.238
27556SOL     OW87514   7.679   9.161   7.931
27556SOL    HW187515   7.713   9.238   7.985
27556SOL    HW287516   7.723   9.161   7.841
27557SOL     OW87517   8.575   8.789   9.138
27557SOL    HW187518   8.622   8.789   9.226
27557SOL    HW287519   8.527   8.702   9.127
27558SOL     OW87520   7.678   8.882   7.986
27558SOL    HW187521   7.652   8.978   7.986
27558SOL    HW287522   7.607   8.828   8.031
27559SOL     OW87523   7.688   8.539   8.334
27559SOL    HW187524   7.702   8.455   8.386
27559SOL    HW287525   7.633   8.603   8.389
27560SOL     OW87526   8.068   9.234   8.887
27560SOL    HW187527   7.976   9.217   8.922
27560SOL    HW287528   8.096   9.326   8.913
27561SOL     OW87529   8.054   8.412   7.571
27561SOL    HW187530   8.061   8.496   7.517
27561SOL    HW287531   8.100   8.425   7.659
27562SOL     OW87532   9.042   7.562   8.928
27562SOL    HW187533   9.024   7.629   8.856
27562SOL    HW287534   9.039   7.608   9.017
27563SOL     OW87535   7.570   8.091   8.011
27563SOL    HW187536   7.525   8.003   8.028
27563SOL    HW287537   7.569   8.145   8.095
27564SOL     OW87538   9.290   9.215   7.807
27564SOL    HW187539   9.344   9.186   7.887
27564SOL    HW287540   9.320   9.305   7.778
27565SOL     OW87541   7.475   9.044   7.565
27565SOL    HW187542   7.456   8.948   7.586
27565SOL    HW287543   7.442   9.102   7.640
27566SOL     OW87544   9.137   8.370   8.060
27566SOL    HW187545   9.232   8.341   8.068
27566SOL    HW287546   9.129   8.435   7.985
27567SOL     OW87547   9.089   8.556   7.880
27567SOL    HW187548   9.175   8.558   7.828
27567SOL    HW287549   9.103   8.603   7.968
27568SOL     OW87550   7.561   8.185   9.045
27568SOL    HW187551   7.649   8.172   9.090
27568SOL    HW287552   7.548   8.282   9.023
27569SOL     OW87553   8.061   8.813   8.174
27569SOL    HW187554   8.012   8.726   8.183
27569SOL    HW287555   8.038   8.856   8.087
27570SOL     OW87556   8.257   7.452   7.950
27570SOL    HW187557   8.297   7.543   7.941
27570SOL    HW287558   8.157   7.460   7.956
27571SOL     OW87559   7.645   8.424   8.712
27571SOL    HW187560   7.734   8.379   8.698
27571SOL    HW287561   7.572   8.359   8.693
27572SOL     OW87562   8.973   8.447   7.638
27572SOL    HW187563   8.910   8.371   7.651
27572SOL    HW287564   9.021   8.465   7.724
27573SOL     OW87565   8.635   9.240   9.064
27573SOL    HW187566   8.659   9.300   8.988
27573SOL    HW287567   8.642   9.145   9.034
27574SOL     OW87568   7.765   7.699   9.249
27574SOL    HW187569   7.836   7.770   9.255
27574SOL    HW287570   7.677   7.738   9.277
27575SOL     OW87571   8.914   8.865   8.401
27575SOL    HW187572   8.855   8.871   8.481
27575SOL    HW287573   8.899   8.777   8.355
27576SOL     OW87574   9.115   9.162   8.020
27576SOL    HW187575   9.074   9.139   7.932
27576SOL    HW287576   9.097   9.088   8.085
27577SOL     OW87577   8.046   8.177   7.718
27577SOL    HW187578   8.070   8.246   7.650
27577SOL    HW287579   7.968   8.210   7.772
27578SOL     OW87580   8.729   7.793   8.392
27578SOL    HW187581   8.643   7.743   8.379
27578SOL    HW287582   8.791   7.739   8.448
27579SOL     OW87583   9.024   9.110   7.755
27579SOL    HW187584   9.113   9.156   7.758
27579SOL    HW287585   9.003   9.086   7.660
27580SOL     OW87586   8.255   8.053   8.913
27580SOL    HW187587   8.208   8.050   9.002
27580SOL    HW287588   8.204   7.998   8.847
27581SOL     OW87589   8.842   7.917   9.122
27581SOL    HW187590   8.822   7.960   9.210
27581SOL    HW287591   8.920   7.855   9.131
27582SOL     OW87592   8.421   8.338   9.020
27582SOL    HW187593   8.467   8.254   8.991
27582SOL    HW287594   8.365   8.372   8.945
27583SOL     OW87595   8.439   7.858   8.690
27583SOL    HW187596   8.362   7.892   8.744
27583SOL    HW287597   8.405   7.807   8.611
27584SOL     OW87598   8.489   8.149   7.877
27584SOL    HW187599   8.515   8.145   7.973
27584SOL    HW287600   8.404   8.098   7.863
27585SOL     OW87601   7.524   8.259   8.237
27585SOL    HW187602   7.623   8.247   8.246
27585SOL    HW287603   7.500   8.354   8.258
27586SOL     OW87604   7.578   9.269   9.019
27586SOL    HW187605   7.568   9.254   9.118
27586SOL    HW287606   7.492   9.305   8.983
27587SOL     OW87607   8.313   7.796   7.643
27587SOL    HW187608   8.372   7.859   7.594
27587SOL    HW287609   8.332   7.702   7.614
27588SOL     OW87610   9.167   8.033   9.279
27588SOL    HW187611   9.141   8.122   9.243
27588SOL    HW287612   9.165   7.965   9.206
27589SOL     OW87613   8.810   8.592   7.993
27589SOL    HW187614   8.893   8.563   7.945
27589SOL    HW287615   8.761   8.659   7.937
27590SOL     OW87616   7.998   7.644   8.333
27590SOL    HW187617   7.993   7.639   8.433
27590SOL    HW287618   8.000   7.740   8.304
27591SOL     OW87619   8.456   8.904   7.925
27591SOL    HW187620   8.410   8.976   7.873
27591SOL    HW287621   8.452   8.924   8.023
27592SOL     OW87622   7.799   9.249   8.301
27592SOL    HW187623   7.849   9.163   8.307
27592SOL    HW287624   7.864   9.326   8.298
27593SOL     OW87625   9.243   8.514   8.321
27593SOL    HW187626   9.181   8.499   8.245
27593SOL    HW287627   9.191   8.525   8.406
27594SOL     OW87628   8.675   8.998   8.954
27594SOL    HW187629   8.681   8.921   9.018
27594SOL    HW287630   8.623   8.972   8.874
27595SOL     OW87631   7.769   8.391   7.690
27595SOL    HW187632   7.851   8.430   7.648
27595SOL    HW287633   7.742   8.309   7.641
27596SOL     OW87634   8.906   8.183   8.176
27596SOL    HW187635   8.901   8.118   8.251
27596SOL    HW287636   8.986   8.242   8.189
27597SOL     OW87637   7.909   8.714   9.175
27597SOL    HW187638   7.859   8.715   9.089
27597SOL    HW287639   7.846   8.696   9.251
27598SOL     OW87640   8.559   9.224   7.685
27598SOL    HW187641   8.499   9.162   7.735
27598SOL    HW287642   8.590   9.180   7.600
27599SOL     OW87643   7.650   7.733   8.946
27599SOL    HW187644   7.570   7.793   8.933
27599SOL    HW287645   7.640   7.684   9.032
27600SOL     OW87646   9.080   8.825   7.529
27600SOL    HW187647   9.048   8.919   7.519
27600SOL    HW287648   9.004   8.762   7.517
27601SOL     OW87649   7.912   9.191   7.771
27601SOL    HW187650   7.945   9.230   7.857
27601SOL    HW287651   7.988   9.184   7.706
27602SOL     OW87652   8.848   7.555   7.874
27602SOL    HW187653   8.824   7.518   7.784
27602SOL    HW287654   8.947   7.571   7.878
27603SOL     OW87655   7.697   9.233   8.689
27603SOL    HW187656   7.754   9.168   8.739
27603SOL    HW287657   7.681   9.200   8.596
27604SOL     OW87658   8.388   9.146   8.352
27604SOL    HW187659   8.468   9.089   8.373
27604SOL    HW287660   8.339   9.106   8.275
27605SOL     OW87661   7.830   8.148   7.928
27605SOL    HW187662   7.875   8.058   7.925
27605SOL    HW287663   7.736   8.137   7.961
27606SOL     OW87664   8.995   7.670   9.177
27606SOL    HW187665   8.990   7.707   9.269
27606SOL    HW287666   8.923   7.601   9.165
27607SOL     OW87667   8.062   7.570   7.565
27607SOL    HW187668   8.160   7.548   7.572
27607SOL    HW287669   8.031   7.553   7.472
27608SOL     OW87670   8.229   7.712   9.197
27608SOL    HW187671   8.296   7.651   9.240
27608SOL    HW287672   8.156   7.731   9.262
27609SOL     OW87673   8.336   8.962   8.643
27609SOL    HW187674   8.313   8.937   8.549
27609SOL    HW287675   8.397   8.893   8.682
27610SOL     OW87676   8.799   8.038   8.881
27610SOL    HW187677   8.827   7.995   8.966
27610SOL    HW287678   8.824   8.134   8.882
27611SOL     OW87679   8.251   8.850   8.372
27611SOL    HW187680   8.341   8.864   8.330
27611SOL    HW287681   8.180   8.852   8.301
27612SOL     OW87682   8.370   7.951   8.347
27612SOL    HW187683   8.345   7.942   8.251
27612SOL    HW287684   8.418   7.869   8.378
27613SOL     OW87685   7.987   7.512   7.960
27613SOL    HW187686   7.906   7.513   8.018
27613SOL    HW287687   7.990   7.595   7.905
27614SOL     OW87688   8.882   8.636   7.489
27614SOL    HW187689   8.914   8.560   7.546
27614SOL    HW287690   8.790   8.663   7.519
27615SOL     OW87691   7.745   7.483   7.619
27615SOL    HW187692   7.794   7.567   7.598
27615SOL    HW287693   7.807   7.418   7.664
27616SOL     OW87694   8.524   8.131   8.912
27616SOL    HW187695   8.444   8.070   8.915
27616SOL    HW287696   8.605   8.078   8.888
27617SOL     OW87697   8.675   9.018   8.241
27617SOL    HW187698   8.696   9.092   8.176
27617SOL    HW287699   8.743   9.018   8.314
27618SOL     OW87700   7.907   8.600   8.189
27618SOL    HW187701   7.836   8.573   8.254
27618SOL    HW287702   7.881   8.572   8.096
27619SOL     OW87703   8.719   9.245   8.039
27619SOL    HW187704   8.763   9.309   7.975
27619SOL    HW287705   8.669   9.297   8.109
27620SOL     OW87706   8.480   7.997   7.464
27620SOL    HW187707   8.439   8.079   7.425
27620SOL    HW287708   8.544   8.023   7.537
27621SOL     OW87709   7.526   8.004   8.834
27621SOL    HW187710   7.618   8.003   8.793
27621SOL    HW287711   7.520   8.078   8.901
27622SOL     OW87712   8.009   7.670   8.595
27622SOL    HW187713   8.047   7.586   8.632
27622SOL    HW287714   7.921   7.689   8.639
27623SOL     OW87715   8.314   7.902   8.090
27623SOL    HW187716   8.282   7.974   8.028
27623SOL    HW287717   8.338   7.821   8.037
27624SOL     OW87718   8.465   7.487   8.201
27624SOL    HW187719   8.393   7.492   8.132
27624SOL    HW287720   8.441   7.418   8.270
27625SOL     OW87721   8.877   8.621   8.315
27625SOL    HW187722   8.822   8.537   8.308
27625SOL    HW287723   8.903   8.650   8.223
27626SOL     OW87724   8.914   8.038   8.440
27626SOL    HW187725   8.884   7.943   8.447
27626SOL    HW287726   8.987   8.054   8.506
27627SOL     OW87727   9.305   8.281   7.825
27627SOL    HW187728   9.347   8.217   7.889
27627SOL    HW287729   9.267   8.230   7.747
27628SOL     OW87730   7.936   8.833   7.622
27628SOL    HW187731   7.849   8.818   7.669
27628SOL    HW287732   7.919   8.859   7.527
27629SOL     OW87733   9.112   8.728   8.105
27629SOL    HW187734   9.211   8.736   8.119
27629SOL    HW287735   9.067   8.812   8.136
27630SOL     OW87736   8.838   8.023   7.526
27630SOL    HW187737   8.784   8.002   7.607
27630SOL    HW287738   8.929   7.982   7.535
27631SOL     OW87739   7.975   7.704   7.776
27631SOL    HW187740   8.002   7.645   7.701
27631SOL    HW287741   7.975   7.799   7.745
27632SOL     OW87742   9.202   8.671   9.036
27632SOL    HW187743   9.293   8.632   9.023
27632SOL    HW287744   9.210   8.767   9.060
27633SOL     OW87745   8.512   8.795   8.788
27633SOL    HW187746   8.432   8.772   8.843
27633SOL    HW287747   8.595   8.769   8.837
27634SOL     OW87748   9.040   9.077   9.073
27634SOL    HW187749   9.067   9.111   8.983
27634SOL    HW287750   9.119   9.039   9.119
27635SOL     OW87751   8.559   8.643   8.548
27635SOL    HW187752   8.519   8.687   8.629
27635SOL    HW287753   8.518   8.680   8.465
27636SOL     OW87754   9.086   8.547   8.527
27636SOL    HW187755   9.091   8.628   8.586
27636SOL    HW287756   9.000   8.549   8.476
27637SOL     OW87757   8.363   7.537   8.850
27637SOL    HW187758   8.388   7.517   8.755
27637SOL    HW287759   8.435   7.593   8.892
27638SOL     OW87760   8.428   8.564   9.167
27638SOL    HW187761   8.329   8.570   9.177
27638SOL    HW287762   8.451   8.484   9.111
27639SOL     OW87763   8.153   8.498   7.816
27639SOL    HW187764   8.139   8.505   7.915
27639SOL    HW287765   8.237   8.447   7.798
27640SOL     OW87766   7.858   8.261   8.699
27640SOL    HW187767   7.944   8.273   8.749
27640SOL    HW287768   7.816   8.174   8.726
27641SOL     OW87769   8.722   7.834   8.710
27641SOL    HW187770   8.743   7.908   8.774
27641SOL    HW287771   8.633   7.851   8.667
27642SOL     OW87772   7.512   9.012   8.779
27642SOL    HW187773   7.466   9.094   8.745
27642SOL    HW287774   7.610   9.031   8.788
27643SOL     OW87775   7.815   8.548   7.949
27643SOL    HW187776   7.808   8.631   7.893
27643SOL    HW287777   7.819   8.468   7.889
27644SOL     OW87778   8.700   8.796   7.836
27644SOL    HW187779   8.750   8.873   7.876
27644SOL    HW287780   8.605   8.798   7.868
27645SOL     OW87781   8.720   8.893   8.590
27645SOL    HW187782   8.767   8.906   8.677
27645SOL    HW287783   8.654   8.819   8.599
27646SOL     OW87784   9.030   8.087   7.920
27646SOL    HW187785   8.999   8.148   7.993
27646SOL    HW287786   9.080   8.139   7.851
27647SOL     OW87787   7.802   8.958   8.777
27647SOL    HW187788   7.781   8.914   8.690
27647SOL    HW287789   7.899   8.984   8.780
27648SOL     OW87790   7.850   8.199   9.046
27648SOL    HW187791   7.918   8.254   8.999
27648SOL    HW287792   7.890   8.111   9.073
27649SOL     OW87793   9.035   8.227   9.118
27649SOL    HW187794   8.943   8.265   9.113
27649SOL    HW287795   9.095   8.274   9.053
27650SOL     OW87796   8.461   7.553   9.218
27650SOL    HW187797   8.467   7.638   9.166
27650SOL    HW287798   8.493   7.477   9.161
27651SOL     OW87799   7.952   7.498   9.188
27651SOL    HW187800   7.910   7.441   9.118
27651SOL    HW287801   7.886   7.567   9.220
27652SOL     OW87802   8.021   8.318   8.477
27652SOL    HW187803   8.065   8.407   8.468
27652SOL    HW287804   7.958   8.318   8.554
27653SOL     OW87805   8.808   8.310   8.493
27653SOL    HW187806   8.733   8.310   8.427
27653SOL    HW287807   8.845   8.218   8.502
27654SOL     OW87808   8.657   7.973   7.723
27654SOL    HW187809   8.670   7.889   7.777
27654SOL    HW287810   8.628   8.047   7.783
27655SOL     OW87811   7.755   7.661   8.679
27655SOL    HW187812   7.732   7.698   8.769
27655SOL    HW287813   7.725   7.566   8.673
27656SOL     OW87814   7.485   8.758   8.730
27656SOL    HW187815   7.538   8.709   8.798
27656SOL    HW287816   7.507   8.856   8.735
27657SOL     OW87817   8.180   8.082   8.512
27657SOL    HW187818   8.239   8.056   8.436
27657SOL    HW287819   8.152   8.178   8.501
27658SOL     OW87820   9.176   8.383   9.302
27658SOL    HW187821   9.130   8.376   9.213
27658SOL    HW287822   9.114   8.427   9.368
27659SOL     OW87823   7.755   7.511   8.066
27659SOL    HW187824   7.744   7.605   8.099
27659SOL    HW287825   7.750   7.448   8.143
27660SOL     OW87826   9.070   7.815   7.822
27660SOL    HW187827   9.072   7.739   7.886
27660SOL    HW287828   9.022   7.892   7.862
27661SOL     OW87829   8.471   8.214   8.414
27661SOL    HW187830   8.486   8.235   8.510
27661SOL    HW287831   8.441   8.119   8.405
27662SOL     OW87832   8.428   9.021   9.148
27662SOL    HW187833   8.408   9.065   9.060
27662SOL    HW287834   8.467   8.930   9.132
27663SOL     OW87835   9.307   8.966   9.053
27663SOL    HW187836   9.321   8.993   8.958
27663SOL    HW287837   9.390   8.988   9.106
27664SOL     OW87838   7.798   8.346   9.252
27664SOL    HW187839   7.874   8.390   9.300
27664SOL    HW287840   7.833   8.299   9.170
27665SOL     OW87841   8.988   7.722   7.573
27665SOL    HW187842   8.927   7.647   7.596
27665SOL    HW287843   9.010   7.774   7.656
27666SOL     OW87844   8.751   8.286   7.490
27666SOL    HW187845   8.785   8.193   7.505
27666SOL    HW287846   8.769   8.313   7.395
27667SOL     OW87847   8.516   8.781   8.297
27667SOL    HW187848   8.523   8.697   8.242
27667SOL    HW287849   8.578   8.850   8.261
27668SOL     OW87850   7.767   8.258   8.397
27668SOL    HW187851   7.860   8.294   8.402
27668SOL    HW287852   7.761   8.173   8.449
27669SOL     OW87853   7.787   7.957   8.454
27669SOL    HW187854   7.735   7.874   8.437
27669SOL    HW287855   7.864   7.962   8.390
27670SOL     OW87856   8.608   7.655   8.925
27670SOL    HW187857   8.608   7.719   9.002
27670SOL    HW287858   8.636   7.703   8.842
27671SOL     OW87859   7.456   8.774   7.648
27671SOL    HW187860   7.363   8.795   7.617
27671SOL    HW287861   7.466   8.675   7.661
27672SOL     OW87862   7.536   9.249   8.375
27672SOL    HW187863   7.494   9.163   8.348
27672SOL    HW287864   7.630   9.252   8.341
27673SOL     OW87865   7.952   9.016   8.358
27673SOL    HW187866   8.018   9.090   8.367
27673SOL    HW287867   7.996   8.937   8.316
27674SOL     OW87868   8.450   8.244   8.686
27674SOL    HW187869   8.491   8.212   8.772
27674SOL    HW287870   8.354   8.217   8.683
27675SOL     OW87871   7.488   7.992   8.562
27675SOL    HW187872   7.573   7.959   8.521
27675SOL    HW287873   7.501   8.007   8.660
27676SOL     OW87874   7.637   7.968   9.170
27676SOL    HW187875   7.696   7.928   9.100
27676SOL    HW287876   7.579   8.039   9.129
27677SOL     OW87877   8.817   8.398   9.108
27677SOL    HW187878   8.856   8.487   9.128
27677SOL    HW287879   8.827   8.378   9.011
27678SOL     OW87880   8.263   8.020   7.773
27678SOL    HW187881   8.270   7.931   7.727
27678SOL    HW287882   8.169   8.054   7.765
27679SOL     OW87883   9.105   8.052   8.654
27679SOL    HW187884   9.067   7.983   8.716
27679SOL    HW287885   9.187   8.016   8.610
27680SOL     OW87886   7.700   9.012   9.192
27680SOL    HW187887   7.670   9.069   9.268
27680SOL    HW287888   7.693   8.915   9.218
27681SOL     OW87889   8.119   7.912   8.717
27681SOL    HW187890   8.085   7.823   8.687
27681SOL    HW287891   8.145   7.966   8.637
27682SOL     OW87892   8.378   9.126   8.913
27682SOL    HW187893   8.354   9.108   8.818
27682SOL    HW287894   8.408   9.220   8.923
27683SOL     OW87895   7.921   7.948   7.639
27683SOL    HW187896   7.982   8.028   7.643
27683SOL    HW287897   7.826   7.979   7.646
27684SOL     OW87898   7.607   8.585   8.914
27684SOL    HW187899   7.629   8.524   8.990
27684SOL    HW287900   7.617   8.536   8.828
27685SOL     OW87901   8.795   8.507   8.682
27685SOL    HW187902   8.819   8.444   8.608
27685SOL    HW287903   8.705   8.547   8.664
27686SOL     OW87904   8.750   8.303   7.757
27686SOL    HW187905   8.664   8.272   7.799
27686SOL    HW287906   8.746   8.289   7.658
27687SOL     OW87907   9.207   9.195   8.602
27687SOL    HW187908   9.268   9.225   8.529
27687SOL    HW287909   9.169   9.106   8.580
27688SOL     OW87910   8.700   9.179   8.576
27688SOL    HW187911   8.784   9.184   8.522
27688SOL    HW287912   8.677   9.083   8.594
27689SOL     OW87913   7.531   8.706   8.470
27689SOL    HW187914   7.526   8.705   8.570
27689SOL    HW287915   7.448   8.665   8.432
27690SOL     OW87916   8.136   9.110   9.164
27690SOL    HW187917   8.080   9.191   9.173
27690SOL    HW287918   8.188   9.114   9.078
27691SOL     OW87919   9.174   7.583   7.971
27691SOL    HW187920   9.247   7.566   7.904
27691SOL    HW287921   9.143   7.496   8.009
27692SOL     OW87922   8.836   9.021   7.925
27692SOL    HW187923   8.903   9.033   7.851
27692SOL    HW287924   8.796   9.110   7.948
27693SOL     OW87925   7.578   9.242   9.299
27693SOL    HW187926   7.537   9.168   9.352
27693SOL    HW287927   7.642   9.293   9.357
27694SOL     OW87928   8.728   8.375   8.120
27694SOL    HW187929   8.788   8.294   8.122
27694SOL    HW287930   8.768   8.444   8.060
27695SOL     OW87931   8.278   8.721   8.870
27695SOL    HW187932   8.273   8.754   8.965
27695SOL    HW287933   8.192   8.740   8.824
27696SOL     OW87934   8.120   9.064   7.602
27696SOL    HW187935   8.129   9.074   7.503
27696SOL    HW287936   8.080   8.975   7.623
27697SOL     OW87937   9.098   9.168   8.842
27697SOL    HW187938   9.151   9.178   8.758
27697SOL    HW287939   9.071   9.258   8.876
27698SOL     OW87940   9.289   7.623   8.411
27698SOL    HW187941   9.328   7.538   8.375
27698SOL    HW287942   9.191   7.625   8.392
27699SOL     OW87943   7.711   7.774   8.168
27699SOL    HW187944   7.632   7.825   8.134
27699SOL    HW287945   7.702   7.759   8.266
27700SOL     OW87946   8.642   9.060   7.479
27700SOL    HW187947   8.648   8.967   7.516
27700SOL    HW287948   8.583   9.060   7.399
27701SOL     OW87949   8.270   8.450   8.820
27701SOL    HW187950   8.310   8.449   8.728
27701SOL    HW287951   8.280   8.542   8.860
27702SOL     OW87952   8.364   8.358   7.739
27702SOL    HW187953   8.427   8.396   7.671
27702SOL    HW287954   8.404   8.275   7.778
27703SOL     OW87955   8.952   9.055   7.492
27703SOL    HW187956   8.860   9.092   7.499
27703SOL    HW287957   8.990   9.075   7.402
27704SOL     OW87958   7.820   8.736   8.938
27704SOL    HW187959   7.807   8.829   8.904
27704SOL    HW287960   7.736   8.684   8.925
27705SOL     OW87961   9.062   8.740   8.737
27705SOL    HW187962   9.122   8.743   8.817
27705SOL    HW287963   8.987   8.804   8.750
27706SOL     OW87964   8.487   8.546   8.144
27706SOL    HW187965   8.417   8.499   8.198
27706SOL    HW287966   8.546   8.478   8.101
27707SOL     OW87967   8.462   7.684   8.419
27707SOL    HW187968   8.454   7.648   8.326
27707SOL    HW287969   8.460   7.608   8.484
27708SOL     OW87970   8.038   8.935   7.939
27708SOL    HW187971   8.080   8.877   7.869
27708SOL    HW287972   7.994   9.014   7.895
27709SOL     OW87973   9.157   7.833   8.829
27709SOL    HW187974   9.230   7.902   8.833
27709SOL    HW287975   9.185   7.758   8.770
27710SOL     OW87976   7.703   8.796   7.738
27710SOL    HW187977   7.607   8.797   7.711
27710SOL    HW287978   7.715   8.849   7.822
27711SOL     OW87979   7.553   8.461   9.174
27711SOL    HW187980   7.476   8.428   9.228
27711SOL    HW287981   7.638   8.431   9.216
27712SOL     OW87982   8.120   7.651   8.937
27712SOL    HW187983   8.210   7.635   8.897
27712SOL    HW287984   8.128   7.656   9.036
27713SOL     OW87985   7.523   7.793   7.481
27713SOL    HW187986   7.431   7.765   7.452
27713SOL    HW287987   7.554   7.870   7.425
27714SOL     OW87988   8.888   8.304   8.846
27714SOL    HW187989   8.831   8.356   8.783
27714SOL    HW287990   8.984   8.316   8.822
27715SOL     OW87991   7.520   7.614   7.766
27715SOL    HW187992   7.503   7.697   7.712
27715SOL    HW287993   7.610   7.577   7.744
27716SOL     OW87994   8.631   8.783   7.567
27716SOL    HW187995   8.532   8.772   7.569
27716SOL    HW287996   8.665   8.798   7.660
27717SOL     OW87997   8.061   8.290   8.879
27717SOL    HW187998   8.117   8.371   8.862
27717SOL    HW287999   8.120   8.210   8.882
27718SOL     OW88000   8.941   9.215   8.407
27718SOL    HW188001   8.974   9.279   8.338
27718SOL    HW288002   9.007   9.209   8.482
27719SOL     OW88003   8.164   8.013   9.156
27719SOL    HW188004   8.183   8.078   9.230
27719SOL    HW288005   8.224   7.933   9.165
27720SOL     OW88006   8.898   8.668   9.081
27720SOL    HW188007   8.889   8.658   9.180
27720SOL    HW288008   8.994   8.661   9.055
27721SOL     OW88009   7.838   9.189   9.008
27721SOL    HW188010   7.747   9.230   9.006
27721SOL    HW288011   7.831   9.095   9.040
27722SOL     OW88012   9.122   8.331   8.702
27722SOL    HW188013   9.095   8.242   8.665
27722SOL    HW288014   9.123   8.399   8.629
27723SOL     OW88015   8.673   7.773   7.897
27723SOL    HW188016   8.738   7.699   7.886
27723SOL    HW288017   8.693   7.823   7.981
27724SOL     OW88018   8.042   8.193   8.100
27724SOL    HW188019   8.092   8.278   8.081
27724SOL    HW288020   7.954   8.195   8.052
27725SOL     OW88021   9.225   7.790   9.090
27725SOL    HW188022   9.208   7.821   8.996
27725SOL    HW288023   9.141   7.753   9.128
27726SOL     OW88024   9.178   8.382   8.965
27726SOL    HW188025   9.216   8.473   8.980
27726SOL    HW288026   9.170   8.365   8.866
27727SOL     OW88027   8.307   8.822   7.464
27727SOL    HW188028   8.261   8.837   7.552
27727SOL    HW288029   8.351   8.907   7.434
27728SOL     OW88030   8.109   9.238   8.401
27728SOL    HW188031   8.063   9.326   8.388
27728SOL    HW288032   8.208   9.250   8.394
27729SOL     OW88033   8.307   8.404   8.309
27729SOL    HW188034   8.361   8.335   8.357
27729SOL    HW288035   8.275   8.473   8.375
27730SOL     OW88036   8.531   8.432   7.535
27730SOL    HW188037   8.508   8.485   7.453
27730SOL    HW288038   8.612   8.376   7.516
27731SOL     OW88039   9.309   9.017   8.299
27731SOL    HW188040   9.238   9.005   8.229
27731SOL    HW288041   9.310   8.938   8.359
27732SOL     OW88042   7.669   8.762   9.292
27732SOL    HW188043   7.604   8.689   9.271
27732SOL    HW288044   7.673   8.776   9.390
27733SOL     OW88045   7.527   8.688   8.101
27733SOL    HW188046   7.526   8.641   8.189
27733SOL    HW288047   7.609   8.660   8.050
27734SOL     OW88048   8.120   8.839   9.072
27734SOL    HW188049   8.042   8.789   9.110
27734SOL    HW288050   8.117   8.934   9.103
27735SOL     OW88051   9.272   7.640   8.675
27735SOL    HW188052   9.268   7.550   8.719
27735SOL    HW288053   9.275   7.629   8.576
27736SOL     OW88054   7.876   7.872   7.968
27736SOL    HW188055   7.906   7.800   7.906
27736SOL    HW288056   7.837   7.832   8.051
27737SOL     OW88057   9.153   8.935   8.552
27737SOL    HW188058   9.060   8.910   8.525
27737SOL    HW288059   9.179   8.885   8.634
27738SOL     OW88060   7.765   7.995   8.728
27738SOL    HW188061   7.803   7.936   8.800
27738SOL    HW288062   7.805   7.969   8.640
27739SOL     OW88063   8.260   9.034   8.135
27739SOL    HW188064   8.292   9.044   8.041
27739SOL    HW288065   8.181   8.972   8.137
27740SOL     OW88066   8.872   7.662   8.560
27740SOL    HW188067   8.924   7.597   8.615
27740SOL    HW288068   8.823   7.725   8.621
27741SOL     OW88069   8.449   7.482   8.602
27741SOL    HW188070   8.386   7.410   8.571
27741SOL    HW288071   8.542   7.446   8.602
27742SOL     OW88072   8.218   8.778   7.749
27742SOL    HW188073   8.172   8.691   7.766
27742SOL    HW288074   8.309   8.775   7.790
27743SOL     OW88075   8.066   9.015   8.732
27743SOL    HW188076   8.061   9.097   8.789
27743SOL    HW288077   8.155   9.012   8.687
27744SOL     OW88078   8.800   7.500   7.616
27744SOL    HW188079   8.835   7.459   7.532
27744SOL    HW288080   8.710   7.462   7.636
27745SOL     OW88081   8.748   7.901   8.139
27745SOL    HW188082   8.689   7.981   8.143
27745SOL    HW288083   8.763   7.866   8.232
27746SOL     OW88084   9.041   7.669   8.330
27746SOL    HW188085   8.957   7.668   8.384
27746SOL    HW288086   9.043   7.752   8.274
27747SOL     OW88087   7.487   8.525   7.748
27747SOL    HW188088   7.586   8.514   7.739
27747SOL    HW288089   7.447   8.439   7.780
27748SOL     OW88090   8.323   9.094   7.785
27748SOL    HW188091   8.246   9.059   7.731
27748SOL    HW288092   8.291   9.165   7.847
27749SOL     OW88093   7.678   8.076   9.423
27749SOL    HW188094   7.585   8.074   9.460
27749SOL    HW288095   7.679   8.037   9.331
27750SOL     OW88096   9.203   8.055   9.541
27750SOL    HW188097   9.191   8.042   9.442
27750SOL    HW288098   9.173   7.974   9.590
27751SOL     OW88099   7.679   9.161   9.793
27751SOL    HW188100   7.713   9.238   9.847
27751SOL    HW288101   7.723   9.161   9.703
27752SOL     OW88102   7.678   8.882   9.848
27752SOL    HW188103   7.652   8.978   9.848
27752SOL    HW288104   7.607   8.828   9.893
27753SOL     OW88105   8.054   8.412   9.433
27753SOL    HW188106   8.061   8.496   9.379
27753SOL    HW288107   8.100   8.425   9.521
27754SOL     OW88108   7.570   8.091   9.873
27754SOL    HW188109   7.525   8.003   9.890
27754SOL    HW288110   7.569   8.145   9.957
27755SOL     OW88111   9.290   9.215   9.669
27755SOL    HW188112   9.344   9.186   9.749
27755SOL    HW288113   9.320   9.305   9.640
27756SOL     OW88114   7.475   9.044   9.427
27756SOL    HW188115   7.456   8.948   9.448
27756SOL    HW288116   7.442   9.102   9.502
27757SOL     OW88117   9.137   8.370   9.922
27757SOL    HW188118   9.232   8.341   9.930
27757SOL    HW288119   9.129   8.435   9.847
27758SOL     OW88120   9.089   8.556   9.742
27758SOL    HW188121   9.175   8.558   9.690
27758SOL    HW288122   9.103   8.603   9.830
27759SOL     OW88123   8.061   8.813  10.036
27759SOL    HW188124   8.012   8.726  10.045
27759SOL    HW288125   8.038   8.856   9.949
27760SOL     OW88126   8.257   7.452   9.812
27760SOL    HW188127   8.297   7.543   9.803
27760SOL    HW288128   8.157   7.460   9.818
27761SOL     OW88129   8.973   8.447   9.500
27761SOL    HW188130   8.910   8.371   9.513
27761SOL    HW288131   9.021   8.465   9.586
27762SOL     OW88132   8.046   8.177   9.580
27762SOL    HW188133   8.070   8.246   9.512
27762SOL    HW288134   7.968   8.210   9.634
27763SOL     OW88135   9.024   9.110   9.617
27763SOL    HW188136   9.113   9.156   9.620
27763SOL    HW288137   9.003   9.086   9.522
27764SOL     OW88138   8.489   8.149   9.739
27764SOL    HW188139   8.515   8.145   9.835
27764SOL    HW288140   8.404   8.098   9.725
27765SOL     OW88141   7.524   8.259  10.099
27765SOL    HW188142   7.623   8.247  10.108
27765SOL    HW288143   7.500   8.354  10.120
27766SOL     OW88144   8.313   7.796   9.505
27766SOL    HW188145   8.372   7.859   9.456
27766SOL    HW288146   8.332   7.702   9.476
27767SOL     OW88147   8.810   8.592   9.855
27767SOL    HW188148   8.893   8.563   9.807
27767SOL    HW288149   8.761   8.659   9.799
27768SOL     OW88150   8.456   8.904   9.787
27768SOL    HW188151   8.410   8.976   9.735
27768SOL    HW288152   8.452   8.924   9.885
27769SOL     OW88153   7.799   9.249  10.163
27769SOL    HW188154   7.849   9.163  10.169
27769SOL    HW288155   7.864   9.326  10.160
27770SOL     OW88156   7.769   8.391   9.552
27770SOL    HW188157   7.851   8.430   9.510
27770SOL    HW288158   7.742   8.309   9.503
27771SOL     OW88159   8.559   9.224   9.547
27771SOL    HW188160   8.499   9.162   9.597
27771SOL    HW288161   8.590   9.180   9.462
27772SOL     OW88162   9.080   8.825   9.391
27772SOL    HW188163   9.048   8.919   9.381
27772SOL    HW288164   9.004   8.762   9.379
27773SOL     OW88165   7.912   9.191   9.633
27773SOL    HW188166   7.945   9.230   9.719
27773SOL    HW288167   7.988   9.184   9.568
27774SOL     OW88168   8.848   7.555   9.736
27774SOL    HW188169   8.824   7.518   9.646
27774SOL    HW288170   8.947   7.571   9.740
27775SOL     OW88171   7.830   8.148   9.790
27775SOL    HW188172   7.875   8.058   9.787
27775SOL    HW288173   7.736   8.137   9.823
27776SOL     OW88174   8.062   7.570   9.427
27776SOL    HW188175   8.160   7.548   9.434
27776SOL    HW288176   8.031   7.553   9.334
27777SOL     OW88177   7.987   7.512   9.822
27777SOL    HW188178   7.906   7.513   9.880
27777SOL    HW288179   7.990   7.595   9.767
27778SOL     OW88180   8.882   8.636   9.351
27778SOL    HW188181   8.914   8.560   9.408
27778SOL    HW288182   8.790   8.663   9.381
27779SOL     OW88183   7.745   7.483   9.481
27779SOL    HW188184   7.794   7.567   9.460
27779SOL    HW288185   7.807   7.418   9.526
27780SOL     OW88186   8.383   7.684   9.790
27780SOL    HW188187   8.335   7.725   9.712
27780SOL    HW288188   8.482   7.682   9.771
27781SOL     OW88189   7.907   8.600  10.051
27781SOL    HW188190   7.836   8.573  10.116
27781SOL    HW288191   7.881   8.572   9.958
27782SOL     OW88192   8.719   9.245   9.901
27782SOL    HW188193   8.763   9.309   9.837
27782SOL    HW288194   8.669   9.297   9.971
27783SOL     OW88195   8.314   7.902   9.952
27783SOL    HW188196   8.282   7.974   9.890
27783SOL    HW288197   8.338   7.821   9.899
27784SOL     OW88198   9.305   8.281   9.687
27784SOL    HW188199   9.347   8.217   9.751
27784SOL    HW288200   9.267   8.230   9.609
27785SOL     OW88201   7.936   8.833   9.484
27785SOL    HW188202   7.849   8.818   9.531
27785SOL    HW288203   7.919   8.859   9.389
27786SOL     OW88204   7.975   7.704   9.638
27786SOL    HW188205   8.002   7.645   9.563
27786SOL    HW288206   7.975   7.799   9.607
27787SOL     OW88207   8.153   8.498   9.678
27787SOL    HW188208   8.139   8.505   9.777
27787SOL    HW288209   8.237   8.447   9.660
27788SOL     OW88210   7.815   8.548   9.811
27788SOL    HW188211   7.808   8.631   9.755
27788SOL    HW288212   7.819   8.468   9.751
27789SOL     OW88213   8.700   8.796   9.698
27789SOL    HW188214   8.750   8.873   9.738
27789SOL    HW288215   8.605   8.798   9.730
27790SOL     OW88216   9.030   8.087   9.782
27790SOL    HW188217   8.999   8.148   9.855
27790SOL    HW288218   9.080   8.139   9.713
27791SOL     OW88219   7.755   7.511   9.928
27791SOL    HW188220   7.744   7.605   9.961
27791SOL    HW288221   7.750   7.448  10.005
27792SOL     OW88222   9.070   7.815   9.684
27792SOL    HW188223   9.072   7.739   9.748
27792SOL    HW288224   9.022   7.892   9.724
27793SOL     OW88225   8.988   7.722   9.435
27793SOL    HW188226   8.927   7.647   9.458
27793SOL    HW288227   9.010   7.774   9.518
27794SOL     OW88228   8.751   8.286   9.352
27794SOL    HW188229   8.785   8.193   9.367
27794SOL    HW288230   8.769   8.313   9.257
27795SOL     OW88231   7.456   8.774   9.510
27795SOL    HW188232   7.363   8.795   9.479
27795SOL    HW288233   7.466   8.675   9.523
27796SOL     OW88234   8.263   8.020   9.635
27796SOL    HW188235   8.270   7.931   9.589
27796SOL    HW288236   8.169   8.054   9.627
27797SOL     OW88237   7.921   7.948   9.501
27797SOL    HW188238   7.982   8.028   9.505
27797SOL    HW288239   7.826   7.979   9.508
27798SOL     OW88240   9.174   7.583   9.833
27798SOL    HW188241   9.247   7.566   9.766
27798SOL    HW288242   9.143   7.496   9.871
27799SOL     OW88243   8.836   9.021   9.787
27799SOL    HW188244   8.903   9.033   9.713
27799SOL    HW288245   8.796   9.110   9.810
27800SOL     OW88246   8.120   9.064   9.464
27800SOL    HW188247   8.129   9.074   9.365
27800SOL    HW288248   8.080   8.975   9.485
27801SOL     OW88249   8.642   9.060   9.341
27801SOL    HW188250   8.648   8.967   9.378
27801SOL    HW288251   8.583   9.060   9.261
27802SOL     OW88252   8.364   8.358   9.601
27802SOL    HW188253   8.427   8.396   9.533
27802SOL    HW288254   8.404   8.275   9.640
27803SOL     OW88255   8.952   9.055   9.354
27803SOL    HW188256   8.860   9.092   9.361
27803SOL    HW288257   8.990   9.075   9.264
27804SOL     OW88258   8.038   8.935   9.801
27804SOL    HW188259   8.080   8.877   9.731
27804SOL    HW288260   7.994   9.014   9.757
27805SOL     OW88261   7.703   8.796   9.600
27805SOL    HW188262   7.607   8.797   9.573
27805SOL    HW288263   7.715   8.849   9.684
27806SOL     OW88264   7.523   7.793   9.343
27806SOL    HW188265   7.431   7.765   9.314
27806SOL    HW288266   7.554   7.870   9.287
27807SOL     OW88267   7.520   7.614   9.628
27807SOL    HW188268   7.503   7.697   9.574
27807SOL    HW288269   7.610   7.577   9.606
27808SOL     OW88270   8.631   8.783   9.429
27808SOL    HW188271   8.532   8.772   9.431
27808SOL    HW288272   8.665   8.798   9.522
27809SOL     OW88273   8.673   7.773   9.759
27809SOL    HW188274   8.738   7.699   9.748
27809SOL    HW288275   8.693   7.823   9.843
27810SOL     OW88276   8.042   8.193   9.962
27810SOL    HW188277   8.092   8.278   9.943
27810SOL    HW288278   7.954   8.195   9.914
27811SOL     OW88279   8.307   8.822   9.326
27811SOL    HW188280   8.261   8.837   9.414
27811SOL    HW288281   8.351   8.907   9.296
27812SOL     OW88282   8.531   8.432   9.397
27812SOL    HW188283   8.508   8.485   9.315
27812SOL    HW288284   8.612   8.376   9.378
27813SOL     OW88285   7.527   8.688   9.963
27813SOL    HW188286   7.526   8.641  10.051
27813SOL    HW288287   7.609   8.660   9.912
27814SOL     OW88288   7.876   7.872   9.830
27814SOL    HW188289   7.906   7.800   9.768
27814SOL    HW288290   7.837   7.832   9.913
27815SOL     OW88291   8.218   8.778   9.611
27815SOL    HW188292   8.172   8.691   9.628
27815SOL    HW288293   8.309   8.775   9.652
27816SOL     OW88294   8.800   7.500   9.478
27816SOL    HW188295   8.835   7.459   9.394
27816SOL    HW288296   8.710   7.462   9.498
27817SOL     OW88297   7.487   8.525   9.610
27817SOL    HW188298   7.586   8.514   9.601
27817SOL    HW288299   7.447   8.439   9.642
27818SOL     OW88300   8.323   9.094   9.647
27818SOL    HW188301   8.246   9.059   9.593
27818SOL    HW288302   8.291   9.165   9.709
27819SOL     OW88303   7.673   9.585   0.996
27819SOL    HW188304   7.708   9.568   1.088
27819SOL    HW288305   7.585   9.540   0.984
27820SOL     OW88306   7.467   9.678   0.647
27820SOL    HW188307   7.385   9.721   0.686
27820SOL    HW288308   7.439   9.605   0.584
27821SOL     OW88309   9.203   9.917   0.231
27821SOL    HW188310   9.191   9.904   0.132
27821SOL    HW288311   9.173   9.836   0.280
27822SOL     OW88312   7.886   9.702   1.499
27822SOL    HW188313   7.968   9.646   1.508
27822SOL    HW288314   7.805   9.644   1.503
27823SOL     OW88315   9.051   9.757   0.737
27823SOL    HW188316   8.977   9.803   0.687
27823SOL    HW288317   9.102   9.825   0.790
27824SOL     OW88318   9.042   9.424   1.480
27824SOL    HW188319   9.024   9.491   1.408
27824SOL    HW288320   9.039   9.470   1.569
27825SOL     OW88321   7.570   9.953   0.563
27825SOL    HW188322   7.525   9.865   0.580
27825SOL    HW288323   7.569  10.007   0.647
27826SOL     OW88324   8.729   9.655   0.944
27826SOL    HW188325   8.643   9.605   0.931
27826SOL    HW288326   8.791   9.601   1.000
27827SOL     OW88327   8.255   9.915   1.465
27827SOL    HW188328   8.208   9.912   1.554
27827SOL    HW288329   8.204   9.860   1.399
27828SOL     OW88330   8.842   9.779   1.674
27828SOL    HW188331   8.822   9.822   1.762
27828SOL    HW288332   8.920   9.717   1.683
27829SOL     OW88333   8.439   9.720   1.242
27829SOL    HW188334   8.362   9.754   1.296
27829SOL    HW288335   8.405   9.669   1.163
27830SOL     OW88336   8.489  10.011   0.429
27830SOL    HW188337   8.515  10.007   0.525
27830SOL    HW288338   8.404   9.960   0.415
27831SOL     OW88339   8.313   9.658   0.195
27831SOL    HW188340   8.372   9.721   0.146
27831SOL    HW288341   8.332   9.564   0.166
27832SOL     OW88342   9.167   9.895   1.831
27832SOL    HW188343   9.141   9.984   1.795
27832SOL    HW288344   9.165   9.827   1.758
27833SOL     OW88345   7.998   9.506   0.885
27833SOL    HW188346   7.993   9.501   0.985
27833SOL    HW288347   8.000   9.602   0.856
27834SOL     OW88348   8.906  10.045   0.728
27834SOL    HW188349   8.901   9.980   0.803
27834SOL    HW288350   8.986  10.104   0.741
27835SOL     OW88351   8.848   9.417   0.426
27835SOL    HW188352   8.824   9.380   0.336
27835SOL    HW288353   8.947   9.433   0.430
27836SOL     OW88354   8.995   9.532   1.729
27836SOL    HW188355   8.990   9.569   1.821
27836SOL    HW288356   8.923   9.463   1.717
27837SOL     OW88357   8.062   9.432   0.117
27837SOL    HW188358   8.160   9.410   0.124
27837SOL    HW288359   8.031   9.415   0.024
27838SOL     OW88360   8.229   9.574   1.749
27838SOL    HW188361   8.296   9.513   1.792
27838SOL    HW288362   8.156   9.593   1.814
27839SOL     OW88363   8.799   9.900   1.433
27839SOL    HW188364   8.827   9.857   1.518
27839SOL    HW288365   8.824   9.996   1.434
27840SOL     OW88366   7.987   9.374   0.512
27840SOL    HW188367   7.906   9.375   0.570
27840SOL    HW288368   7.990   9.457   0.457
27841SOL     OW88369   8.383   9.546   0.480
27841SOL    HW188370   8.335   9.587   0.402
27841SOL    HW288371   8.482   9.544   0.461
27842SOL     OW88372   8.524   9.993   1.464
27842SOL    HW188373   8.444   9.932   1.467
27842SOL    HW288374   8.605   9.940   1.440
27843SOL     OW88375   8.009   9.532   1.147
27843SOL    HW188376   8.047   9.448   1.184
27843SOL    HW288377   7.921   9.551   1.191
27844SOL     OW88378   8.465   9.349   0.753
27844SOL    HW188379   8.393   9.354   0.684
27844SOL    HW288380   8.441   9.280   0.822
27845SOL     OW88381   8.914   9.900   0.992
27845SOL    HW188382   8.884   9.805   0.999
27845SOL    HW288383   8.987   9.916   1.058
27846SOL     OW88384   7.975   9.566   0.328
27846SOL    HW188385   8.002   9.507   0.253
27846SOL    HW288386   7.975   9.661   0.297
27847SOL     OW88387   8.363   9.399   1.402
27847SOL    HW188388   8.388   9.379   1.307
27847SOL    HW288389   8.435   9.455   1.444
27848SOL     OW88390   8.722   9.696   1.262
27848SOL    HW188391   8.743   9.770   1.326
27848SOL    HW288392   8.633   9.713   1.219
27849SOL     OW88393   8.014   9.847   0.865
27849SOL    HW188394   8.026   9.913   0.791
27849SOL    HW288395   8.060   9.881   0.948
27850SOL     OW88396   9.030   9.949   0.472
27850SOL    HW188397   8.999  10.010   0.545
27850SOL    HW288398   9.080  10.001   0.403
27851SOL     OW88399   8.461   9.415   1.770
27851SOL    HW188400   8.467   9.500   1.718
27851SOL    HW288401   8.493   9.339   1.713
27852SOL     OW88402   7.952   9.360   1.740
27852SOL    HW188403   7.910   9.303   1.670
27852SOL    HW288404   7.886   9.429   1.772
27853SOL     OW88405   8.657   9.835   0.275
27853SOL    HW188406   8.670   9.751   0.329
27853SOL    HW288407   8.628   9.909   0.335
27854SOL     OW88408   8.180   9.944   1.064
27854SOL    HW188409   8.239   9.918   0.988
27854SOL    HW288410   8.152  10.040   1.053
27855SOL     OW88411   7.755   9.373   0.618
27855SOL    HW188412   7.744   9.467   0.651
27855SOL    HW288413   7.750   9.310   0.695
27856SOL     OW88414   9.070   9.677   0.374
27856SOL    HW188415   9.072   9.601   0.438
27856SOL    HW288416   9.022   9.754   0.414
27857SOL     OW88417   8.988   9.584   0.125
27857SOL    HW188418   8.927   9.509   0.148
27857SOL    HW288419   9.010   9.636   0.208
27858SOL     OW88420   7.767  10.120   0.949
27858SOL    HW188421   7.860  10.156   0.954
27858SOL    HW288422   7.761  10.035   1.001
27859SOL     OW88423   7.787   9.819   1.006
27859SOL    HW188424   7.735   9.736   0.989
27859SOL    HW288425   7.864   9.824   0.942
27860SOL     OW88426   8.586   9.690   1.678
27860SOL    HW188427   8.541   9.753   1.742
27860SOL    HW288428   8.679   9.721   1.661
27861SOL     OW88429   8.608   9.517   1.477
27861SOL    HW188430   8.608   9.581   1.554
27861SOL    HW288431   8.636   9.565   1.394
27862SOL     OW88432   7.637   9.830   1.722
27862SOL    HW188433   7.696   9.790   1.652
27862SOL    HW288434   7.579   9.901   1.681
27863SOL     OW88435   8.263   9.882   0.325
27863SOL    HW188436   8.270   9.793   0.279
27863SOL    HW288437   8.169   9.916   0.317
27864SOL     OW88438   9.105   9.914   1.206
27864SOL    HW188439   9.067   9.845   1.268
27864SOL    HW288440   9.187   9.878   1.162
27865SOL     OW88441   8.119   9.774   1.269
27865SOL    HW188442   8.085   9.685   1.239
27865SOL    HW288443   8.145   9.828   1.189
27866SOL     OW88444   8.351   9.396   0.133
27866SOL    HW188445   8.402   9.397   0.047
27866SOL    HW288446   8.407   9.354   0.204
27867SOL     OW88447   9.174   9.445   0.523
27867SOL    HW188448   9.247   9.428   0.456
27867SOL    HW288449   9.143   9.358   0.561
27868SOL     OW88450   9.289   9.485   0.963
27868SOL    HW188451   9.328   9.400   0.927
27868SOL    HW288452   9.191   9.487   0.944
27869SOL     OW88453   7.711   9.636   0.720
27869SOL    HW188454   7.632   9.687   0.686
27869SOL    HW288455   7.702   9.621   0.818
27870SOL     OW88456   8.462   9.546   0.971
27870SOL    HW188457   8.454   9.510   0.878
27870SOL    HW288458   8.460   9.470   1.036
27871SOL     OW88459   9.157   9.695   1.381
27871SOL    HW188460   9.230   9.764   1.385
27871SOL    HW288461   9.185   9.620   1.322
27872SOL     OW88462   8.120   9.513   1.489
27872SOL    HW188463   8.210   9.497   1.449
27872SOL    HW288464   8.128   9.518   1.588
27873SOL     OW88465   7.523   9.655   0.033
27873SOL    HW188466   7.431   9.627   0.004
27873SOL    HW288467   7.554   9.732  -0.023
27874SOL     OW88468   7.520   9.476   0.318
27874SOL    HW188469   7.503   9.559   0.264
27874SOL    HW288470   7.610   9.439   0.296
27875SOL     OW88471   8.164   9.875   1.708
27875SOL    HW188472   8.183   9.940   1.782
27875SOL    HW288473   8.224   9.795   1.717
27876SOL     OW88474   8.673   9.635   0.449
27876SOL    HW188475   8.738   9.561   0.438
27876SOL    HW288476   8.693   9.685   0.533
27877SOL     OW88477   9.225   9.652   1.642
27877SOL    HW188478   9.208   9.683   1.548
27877SOL    HW288479   9.141   9.615   1.680
27878SOL     OW88480   8.531  10.294   0.087
27878SOL    HW188481   8.508  10.347   0.005
27878SOL    HW288482   8.612  10.238   0.068
27879SOL     OW88483   9.272   9.502   1.227
27879SOL    HW188484   9.268   9.412   1.271
27879SOL    HW288485   9.275   9.491   1.128
27880SOL     OW88486   7.876   9.734   0.520
27880SOL    HW188487   7.906   9.662   0.458
27880SOL    HW288488   7.837   9.694   0.603
27881SOL     OW88489   8.872   9.524   1.112
27881SOL    HW188490   8.924   9.459   1.167
27881SOL    HW288491   8.823   9.587   1.173
27882SOL     OW88492   8.449   9.344   1.154
27882SOL    HW188493   8.386   9.272   1.123
27882SOL    HW288494   8.542   9.308   1.154
27883SOL     OW88495   8.800   9.362   0.168
27883SOL    HW188496   8.835   9.321   0.084
27883SOL    HW288497   8.710   9.324   0.188
27884SOL     OW88498   8.748   9.763   0.691
27884SOL    HW188499   8.689   9.843   0.695
27884SOL    HW288500   8.763   9.728   0.784
27885SOL     OW88501   9.041   9.531   0.882
27885SOL    HW188502   8.957   9.530   0.936
27885SOL    HW288503   9.043   9.614   0.826
27886SOL     OW88504   7.673   9.585   2.858
27886SOL    HW188505   7.708   9.568   2.950
27886SOL    HW288506   7.585   9.540   2.846
27887SOL     OW88507   9.203   9.917   2.093
27887SOL    HW188508   9.191   9.904   1.994
27887SOL    HW288509   9.173   9.836   2.142
27888SOL     OW88510   7.886   9.702   3.361
27888SOL    HW188511   7.968   9.646   3.370
27888SOL    HW288512   7.805   9.644   3.365
27889SOL     OW88513   9.051   9.757   2.599
27889SOL    HW188514   8.977   9.803   2.549
27889SOL    HW288515   9.102   9.825   2.652
27890SOL     OW88516   9.042   9.424   3.342
27890SOL    HW188517   9.024   9.491   3.270
27890SOL    HW288518   9.039   9.470   3.431
27891SOL     OW88519   7.570   9.953   2.425
27891SOL    HW188520   7.525   9.865   2.442
27891SOL    HW288521   7.569  10.007   2.509
27892SOL     OW88522   7.765   9.561   3.663
27892SOL    HW188523   7.836   9.632   3.669
27892SOL    HW288524   7.677   9.600   3.691
27893SOL     OW88525   8.729   9.655   2.806
27893SOL    HW188526   8.643   9.605   2.793
27893SOL    HW288527   8.791   9.601   2.862
27894SOL     OW88528   8.255   9.915   3.327
27894SOL    HW188529   8.208   9.912   3.416
27894SOL    HW288530   8.204   9.860   3.261
27895SOL     OW88531   8.842   9.779   3.536
27895SOL    HW188532   8.822   9.822   3.624
27895SOL    HW288533   8.920   9.717   3.545
27896SOL     OW88534   8.439   9.720   3.104
27896SOL    HW188535   8.362   9.754   3.158
27896SOL    HW288536   8.405   9.669   3.025
27897SOL     OW88537   8.313   9.658   2.057
27897SOL    HW188538   8.372   9.721   2.008
27897SOL    HW288539   8.332   9.564   2.028
27898SOL     OW88540   7.998   9.506   2.747
27898SOL    HW188541   7.993   9.501   2.847
27898SOL    HW288542   8.000   9.602   2.718
27899SOL     OW88543   8.906  10.045   2.590
27899SOL    HW188544   8.901   9.980   2.665
27899SOL    HW288545   8.986  10.104   2.603
27900SOL     OW88546   7.650   9.595   3.360
27900SOL    HW188547   7.570   9.655   3.347
27900SOL    HW288548   7.640   9.546   3.446
27901SOL     OW88549   8.848   9.417   2.288
27901SOL    HW188550   8.824   9.380   2.198
27901SOL    HW288551   8.947   9.433   2.292
27902SOL     OW88552   8.995   9.532   3.591
27902SOL    HW188553   8.990   9.569   3.683
27902SOL    HW288554   8.923   9.463   3.579
27903SOL     OW88555   8.062   9.432   1.979
27903SOL    HW188556   8.160   9.410   1.986
27903SOL    HW288557   8.031   9.415   1.886
27904SOL     OW88558   8.229   9.574   3.611
27904SOL    HW188559   8.296   9.513   3.654
27904SOL    HW288560   8.156   9.593   3.676
27905SOL     OW88561   8.799   9.900   3.295
27905SOL    HW188562   8.827   9.857   3.380
27905SOL    HW288563   8.824   9.996   3.296
27906SOL     OW88564   8.370   9.813   2.761
27906SOL    HW188565   8.345   9.804   2.665
27906SOL    HW288566   8.418   9.731   2.792
27907SOL     OW88567   7.987   9.374   2.374
27907SOL    HW188568   7.906   9.375   2.432
27907SOL    HW288569   7.990   9.457   2.319
27908SOL     OW88570   7.745   9.345   2.033
27908SOL    HW188571   7.794   9.429   2.012
27908SOL    HW288572   7.807   9.280   2.078
27909SOL     OW88573   8.383   9.546   2.342
27909SOL    HW188574   8.335   9.587   2.264
27909SOL    HW288575   8.482   9.544   2.323
27910SOL     OW88576   8.524   9.993   3.326
27910SOL    HW188577   8.444   9.932   3.329
27910SOL    HW288578   8.605   9.940   3.302
27911SOL     OW88579   8.480   9.859   1.878
27911SOL    HW188580   8.439   9.941   1.839
27911SOL    HW288581   8.544   9.885   1.951
27912SOL     OW88582   7.526   9.866   3.248
27912SOL    HW188583   7.618   9.865   3.207
27912SOL    HW288584   7.520   9.940   3.315
27913SOL     OW88585   8.009   9.532   3.009
27913SOL    HW188586   8.047   9.448   3.046
27913SOL    HW288587   7.921   9.551   3.053
27914SOL     OW88588   8.314   9.764   2.504
27914SOL    HW188589   8.282   9.836   2.442
27914SOL    HW288590   8.338   9.683   2.451
27915SOL     OW88591   8.465   9.349   2.615
27915SOL    HW188592   8.393   9.354   2.546
27915SOL    HW288593   8.441   9.280   2.684
27916SOL     OW88594   8.914   9.900   2.854
27916SOL    HW188595   8.884   9.805   2.861
27916SOL    HW288596   8.987   9.916   2.920
27917SOL     OW88597   7.975   9.566   2.190
27917SOL    HW188598   8.002   9.507   2.115
27917SOL    HW288599   7.975   9.661   2.159
27918SOL     OW88600   8.363   9.399   3.264
27918SOL    HW188601   8.388   9.379   3.169
27918SOL    HW288602   8.435   9.455   3.306
27919SOL     OW88603   8.722   9.696   3.124
27919SOL    HW188604   8.743   9.770   3.188
27919SOL    HW288605   8.633   9.713   3.081
27920SOL     OW88606   8.014   9.847   2.727
27920SOL    HW188607   8.026   9.913   2.653
27920SOL    HW288608   8.060   9.881   2.810
27921SOL     OW88609   9.030   9.949   2.334
27921SOL    HW188610   8.999  10.010   2.407
27921SOL    HW288611   9.080  10.001   2.265
27922SOL     OW88612   8.461   9.415   3.632
27922SOL    HW188613   8.467   9.500   3.580
27922SOL    HW288614   8.493   9.339   3.575
27923SOL     OW88615   8.657   9.835   2.137
27923SOL    HW188616   8.670   9.751   2.191
27923SOL    HW288617   8.628   9.909   2.197
27924SOL     OW88618   7.755   9.523   3.093
27924SOL    HW188619   7.732   9.560   3.183
27924SOL    HW288620   7.725   9.428   3.087
27925SOL     OW88621   8.180   9.944   2.926
27925SOL    HW188622   8.239   9.918   2.850
27925SOL    HW288623   8.152  10.040   2.915
27926SOL     OW88624   7.755   9.373   2.480
27926SOL    HW188625   7.744   9.467   2.513
27926SOL    HW288626   7.750   9.310   2.557
27927SOL     OW88627   9.070   9.677   2.236
27927SOL    HW188628   9.072   9.601   2.300
27927SOL    HW288629   9.022   9.754   2.276
27928SOL     OW88630   8.988   9.584   1.987
27928SOL    HW188631   8.927   9.509   2.010
27928SOL    HW288632   9.010   9.636   2.070
27929SOL     OW88633   7.767  10.120   2.811
27929SOL    HW188634   7.860  10.156   2.816
27929SOL    HW288635   7.761  10.035   2.863
27930SOL     OW88636   7.787   9.819   2.868
27930SOL    HW188637   7.735   9.736   2.851
27930SOL    HW288638   7.864   9.824   2.804
27931SOL     OW88639   8.586   9.690   3.540
27931SOL    HW188640   8.541   9.753   3.604
27931SOL    HW288641   8.679   9.721   3.523
27932SOL     OW88642   8.608   9.517   3.339
27932SOL    HW188643   8.608   9.581   3.416
27932SOL    HW288644   8.636   9.565   3.256
27933SOL     OW88645   7.488   9.854   2.976
27933SOL    HW188646   7.573   9.821   2.935
27933SOL    HW288647   7.501   9.869   3.074
27934SOL     OW88648   7.637   9.830   3.584
27934SOL    HW188649   7.696   9.790   3.514
27934SOL    HW288650   7.579   9.901   3.543
27935SOL     OW88651   8.263   9.882   2.187
27935SOL    HW188652   8.270   9.793   2.141
27935SOL    HW288653   8.169   9.916   2.179
27936SOL     OW88654   9.105   9.914   3.068
27936SOL    HW188655   9.067   9.845   3.130
27936SOL    HW288656   9.187   9.878   3.024
27937SOL     OW88657   8.119   9.774   3.131
27937SOL    HW188658   8.085   9.685   3.101
27937SOL    HW288659   8.145   9.828   3.051
27938SOL     OW88660   9.174   9.445   2.385
27938SOL    HW188661   9.247   9.428   2.318
27938SOL    HW288662   9.143   9.358   2.423
27939SOL     OW88663   9.289   9.485   2.825
27939SOL    HW188664   9.328   9.400   2.789
27939SOL    HW288665   9.191   9.487   2.806
27940SOL     OW88666   7.711   9.636   2.582
27940SOL    HW188667   7.632   9.687   2.548
27940SOL    HW288668   7.702   9.621   2.680
27941SOL     OW88669   8.462   9.546   2.833
27941SOL    HW188670   8.454   9.510   2.740
27941SOL    HW288671   8.460   9.470   2.898
27942SOL     OW88672   9.157   9.695   3.243
27942SOL    HW188673   9.230   9.764   3.247
27942SOL    HW288674   9.185   9.620   3.184
27943SOL     OW88675   8.120   9.513   3.351
27943SOL    HW188676   8.210   9.497   3.311
27943SOL    HW288677   8.128   9.518   3.450
27944SOL     OW88678   8.164   9.875   3.570
27944SOL    HW188679   8.183   9.940   3.644
27944SOL    HW288680   8.224   9.795   3.579
27945SOL     OW88681   8.673   9.635   2.311
27945SOL    HW188682   8.738   9.561   2.300
27945SOL    HW288683   8.693   9.685   2.395
27946SOL     OW88684   9.225   9.652   3.504
27946SOL    HW188685   9.208   9.683   3.410
27946SOL    HW288686   9.141   9.615   3.542
27947SOL     OW88687   8.531  10.294   1.949
27947SOL    HW188688   8.508  10.347   1.867
27947SOL    HW288689   8.612  10.238   1.930
27948SOL     OW88690   9.272   9.502   3.089
27948SOL    HW188691   9.268   9.412   3.133
27948SOL    HW288692   9.275   9.491   2.990
27949SOL     OW88693   7.876   9.734   2.382
27949SOL    HW188694   7.906   9.662   2.320
27949SOL    HW288695   7.837   9.694   2.465
27950SOL     OW88696   7.765   9.857   3.142
27950SOL    HW188697   7.803   9.798   3.214
27950SOL    HW288698   7.805   9.831   3.054
27951SOL     OW88699   8.872   9.524   2.974
27951SOL    HW188700   8.924   9.459   3.029
27951SOL    HW288701   8.823   9.587   3.035
27952SOL     OW88702   8.449   9.344   3.016
27952SOL    HW188703   8.386   9.272   2.985
27952SOL    HW288704   8.542   9.308   3.016
27953SOL     OW88705   8.800   9.362   2.030
27953SOL    HW188706   8.835   9.321   1.946
27953SOL    HW288707   8.710   9.324   2.050
27954SOL     OW88708   8.748   9.763   2.553
27954SOL    HW188709   8.689   9.843   2.557
27954SOL    HW288710   8.763   9.728   2.646
27955SOL     OW88711   9.041   9.531   2.744
27955SOL    HW188712   8.957   9.530   2.798
27955SOL    HW288713   9.043   9.614   2.688
27956SOL     OW88714   7.673   9.585   4.720
27956SOL    HW188715   7.708   9.568   4.812
27956SOL    HW288716   7.585   9.540   4.708
27957SOL     OW88717   7.467   9.678   4.371
27957SOL    HW188718   7.385   9.721   4.410
27957SOL    HW288719   7.439   9.605   4.308
27958SOL     OW88720   7.886   9.702   5.223
27958SOL    HW188721   7.968   9.646   5.232
27958SOL    HW288722   7.805   9.644   5.227
27959SOL     OW88723   9.051   9.757   4.461
27959SOL    HW188724   8.977   9.803   4.411
27959SOL    HW288725   9.102   9.825   4.514
27960SOL     OW88726   9.042   9.424   5.204
27960SOL    HW188727   9.024   9.491   5.132
27960SOL    HW288728   9.039   9.470   5.293
27961SOL     OW88729   7.570   9.953   4.287
27961SOL    HW188730   7.525   9.865   4.304
27961SOL    HW288731   7.569  10.007   4.371
27962SOL     OW88732   8.257   9.314   4.226
27962SOL    HW188733   8.297   9.405   4.217
27962SOL    HW288734   8.157   9.322   4.232
27963SOL     OW88735   7.765   9.561   5.525
27963SOL    HW188736   7.836   9.632   5.531
27963SOL    HW288737   7.677   9.600   5.553
27964SOL     OW88738   8.729   9.655   4.668
27964SOL    HW188739   8.643   9.605   4.655
27964SOL    HW288740   8.791   9.601   4.724
27965SOL     OW88741   8.255   9.915   5.189
27965SOL    HW188742   8.208   9.912   5.278
27965SOL    HW288743   8.204   9.860   5.123
27966SOL     OW88744   8.439   9.720   4.966
27966SOL    HW188745   8.362   9.754   5.020
27966SOL    HW288746   8.405   9.669   4.887
27967SOL     OW88747   8.489  10.011   4.153
27967SOL    HW188748   8.515  10.007   4.249
27967SOL    HW288749   8.404   9.960   4.139
27968SOL     OW88750   8.313   9.658   3.919
27968SOL    HW188751   8.372   9.721   3.870
27968SOL    HW288752   8.332   9.564   3.890
27969SOL     OW88753   9.167   9.895   5.555
27969SOL    HW188754   9.141   9.984   5.519
27969SOL    HW288755   9.165   9.827   5.482
27970SOL     OW88756   8.906  10.045   4.452
27970SOL    HW188757   8.901   9.980   4.527
27970SOL    HW288758   8.986  10.104   4.465
27971SOL     OW88759   7.650   9.595   5.222
27971SOL    HW188760   7.570   9.655   5.209
27971SOL    HW288761   7.640   9.546   5.308
27972SOL     OW88762   8.848   9.417   4.150
27972SOL    HW188763   8.824   9.380   4.060
27972SOL    HW288764   8.947   9.433   4.154
27973SOL     OW88765   8.062   9.432   3.841
27973SOL    HW188766   8.160   9.410   3.848
27973SOL    HW288767   8.031   9.415   3.748
27974SOL     OW88768   8.229   9.574   5.473
27974SOL    HW188769   8.296   9.513   5.516
27974SOL    HW288770   8.156   9.593   5.538
27975SOL     OW88771   8.370   9.813   4.623
27975SOL    HW188772   8.345   9.804   4.527
27975SOL    HW288773   8.418   9.731   4.654
27976SOL     OW88774   7.745   9.345   3.895
27976SOL    HW188775   7.794   9.429   3.874
27976SOL    HW288776   7.807   9.280   3.940
27977SOL     OW88777   8.383   9.546   4.204
27977SOL    HW188778   8.335   9.587   4.126
27977SOL    HW288779   8.482   9.544   4.185
27978SOL     OW88780   8.524   9.993   5.188
27978SOL    HW188781   8.444   9.932   5.191
27978SOL    HW288782   8.605   9.940   5.164
27979SOL     OW88783   7.526   9.866   5.110
27979SOL    HW188784   7.618   9.865   5.069
27979SOL    HW288785   7.520   9.940   5.177
27980SOL     OW88786   8.009   9.532   4.871
27980SOL    HW188787   8.047   9.448   4.908
27980SOL    HW288788   7.921   9.551   4.915
27981SOL     OW88789   8.314   9.764   4.366
27981SOL    HW188790   8.282   9.836   4.304
27981SOL    HW288791   8.338   9.683   4.313
27982SOL     OW88792   8.465   9.349   4.477
27982SOL    HW188793   8.393   9.354   4.408
27982SOL    HW288794   8.441   9.280   4.546
27983SOL     OW88795   8.914   9.900   4.716
27983SOL    HW188796   8.884   9.805   4.723
27983SOL    HW288797   8.987   9.916   4.782
27984SOL     OW88798   7.975   9.566   4.052
27984SOL    HW188799   8.002   9.507   3.977
27984SOL    HW288800   7.975   9.661   4.021
27985SOL     OW88801   8.363   9.399   5.126
27985SOL    HW188802   8.388   9.379   5.031
27985SOL    HW288803   8.435   9.455   5.168
27986SOL     OW88804   8.722   9.696   4.986
27986SOL    HW188805   8.743   9.770   5.050
27986SOL    HW288806   8.633   9.713   4.943
27987SOL     OW88807   8.014   9.847   4.589
27987SOL    HW188808   8.026   9.913   4.515
27987SOL    HW288809   8.060   9.881   4.672
27988SOL     OW88810   9.030   9.949   4.196
27988SOL    HW188811   8.999  10.010   4.269
27988SOL    HW288812   9.080  10.001   4.127
27989SOL     OW88813   7.952   9.360   5.464
27989SOL    HW188814   7.910   9.303   5.394
27989SOL    HW288815   7.886   9.429   5.496
27990SOL     OW88816   8.657   9.835   3.999
27990SOL    HW188817   8.670   9.751   4.053
27990SOL    HW288818   8.628   9.909   4.059
27991SOL     OW88819   7.755   9.523   4.955
27991SOL    HW188820   7.732   9.560   5.045
27991SOL    HW288821   7.725   9.428   4.949
27992SOL     OW88822   8.180   9.944   4.788
27992SOL    HW188823   8.239   9.918   4.712
27992SOL    HW288824   8.152  10.040   4.777
27993SOL     OW88825   9.070   9.677   4.098
27993SOL    HW188826   9.072   9.601   4.162
27993SOL    HW288827   9.022   9.754   4.138
27994SOL     OW88828   8.988   9.584   3.849
27994SOL    HW188829   8.927   9.509   3.872
27994SOL    HW288830   9.010   9.636   3.932
27995SOL     OW88831   7.767  10.120   4.673
27995SOL    HW188832   7.860  10.156   4.678
27995SOL    HW288833   7.761  10.035   4.725
27996SOL     OW88834   7.787   9.819   4.730
27996SOL    HW188835   7.735   9.736   4.713
27996SOL    HW288836   7.864   9.824   4.666
27997SOL     OW88837   7.488   9.854   4.838
27997SOL    HW188838   7.573   9.821   4.797
27997SOL    HW288839   7.501   9.869   4.936
27998SOL     OW88840   7.637   9.830   5.446
27998SOL    HW188841   7.696   9.790   5.376
27998SOL    HW288842   7.579   9.901   5.405
27999SOL     OW88843   8.263   9.882   4.049
27999SOL    HW188844   8.270   9.793   4.003
27999SOL    HW288845   8.169   9.916   4.041
28000SOL     OW88846   9.105   9.914   4.930
28000SOL    HW188847   9.067   9.845   4.992
28000SOL    HW288848   9.187   9.878   4.886
28001SOL     OW88849   8.119   9.774   4.993
28001SOL    HW188850   8.085   9.685   4.963
28001SOL    HW288851   8.145   9.828   4.913
28002SOL     OW88852   9.174   9.445   4.247
28002SOL    HW188853   9.247   9.428   4.180
28002SOL    HW288854   9.143   9.358   4.285
28003SOL     OW88855   9.289   9.485   4.687
28003SOL    HW188856   9.328   9.400   4.651
28003SOL    HW288857   9.191   9.487   4.668
28004SOL     OW88858   7.711   9.636   4.444
28004SOL    HW188859   7.632   9.687   4.410
28004SOL    HW288860   7.702   9.621   4.542
28005SOL     OW88861   8.462   9.546   4.695
28005SOL    HW188862   8.454   9.510   4.602
28005SOL    HW288863   8.460   9.470   4.760
28006SOL     OW88864   9.157   9.695   5.105
28006SOL    HW188865   9.230   9.764   5.109
28006SOL    HW288866   9.185   9.620   5.046
28007SOL     OW88867   8.120   9.513   5.213
28007SOL    HW188868   8.210   9.497   5.173
28007SOL    HW288869   8.128   9.518   5.312
28008SOL     OW88870   7.523   9.655   3.757
28008SOL    HW188871   7.431   9.627   3.728
28008SOL    HW288872   7.554   9.732   3.701
28009SOL     OW88873   7.520   9.476   4.042
28009SOL    HW188874   7.503   9.559   3.988
28009SOL    HW288875   7.610   9.439   4.020
28010SOL     OW88876   8.164   9.875   5.432
28010SOL    HW188877   8.183   9.940   5.506
28010SOL    HW288878   8.224   9.795   5.441
28011SOL     OW88879   8.673   9.635   4.173
28011SOL    HW188880   8.738   9.561   4.162
28011SOL    HW288881   8.693   9.685   4.257
28012SOL     OW88882   9.225   9.652   5.366
28012SOL    HW188883   9.208   9.683   5.272
28012SOL    HW288884   9.141   9.615   5.404
28013SOL     OW88885   8.531  10.294   3.811
28013SOL    HW188886   8.508  10.347   3.729
28013SOL    HW288887   8.612  10.238   3.792
28014SOL     OW88888   9.272   9.502   4.951
28014SOL    HW188889   9.268   9.412   4.995
28014SOL    HW288890   9.275   9.491   4.852
28015SOL     OW88891   7.876   9.734   4.244
28015SOL    HW188892   7.906   9.662   4.182
28015SOL    HW288893   7.837   9.694   4.327
28016SOL     OW88894   7.765   9.857   5.004
28016SOL    HW188895   7.803   9.798   5.076
28016SOL    HW288896   7.805   9.831   4.916
28017SOL     OW88897   8.872   9.524   4.836
28017SOL    HW188898   8.924   9.459   4.891
28017SOL    HW288899   8.823   9.587   4.897
28018SOL     OW88900   8.449   9.344   4.878
28018SOL    HW188901   8.386   9.272   4.847
28018SOL    HW288902   8.542   9.308   4.878
28019SOL     OW88903   8.800   9.362   3.892
28019SOL    HW188904   8.835   9.321   3.808
28019SOL    HW288905   8.710   9.324   3.912
28020SOL     OW88906   8.748   9.763   4.415
28020SOL    HW188907   8.689   9.843   4.419
28020SOL    HW288908   8.763   9.728   4.508
28021SOL     OW88909   9.041   9.531   4.606
28021SOL    HW188910   8.957   9.530   4.660
28021SOL    HW288911   9.043   9.614   4.550
28022SOL     OW88912   7.673   9.585   6.582
28022SOL    HW188913   7.708   9.568   6.674
28022SOL    HW288914   7.585   9.540   6.570
28023SOL     OW88915   7.467   9.678   6.233
28023SOL    HW188916   7.385   9.721   6.272
28023SOL    HW288917   7.439   9.605   6.170
28024SOL     OW88918   9.203   9.917   5.817
28024SOL    HW188919   9.191   9.904   5.718
28024SOL    HW288920   9.173   9.836   5.866
28025SOL     OW88921   7.886   9.702   7.085
28025SOL    HW188922   7.968   9.646   7.094
28025SOL    HW288923   7.805   9.644   7.089
28026SOL     OW88924   9.051   9.757   6.323
28026SOL    HW188925   8.977   9.803   6.273
28026SOL    HW288926   9.102   9.825   6.376
28027SOL     OW88927   9.042   9.424   7.066
28027SOL    HW188928   9.024   9.491   6.994
28027SOL    HW288929   9.039   9.470   7.155
28028SOL     OW88930   7.570   9.953   6.149
28028SOL    HW188931   7.525   9.865   6.166
28028SOL    HW288932   7.569  10.007   6.233
28029SOL     OW88933   8.257   9.314   6.088
28029SOL    HW188934   8.297   9.405   6.079
28029SOL    HW288935   8.157   9.322   6.094
28030SOL     OW88936   7.765   9.561   7.387
28030SOL    HW188937   7.836   9.632   7.393
28030SOL    HW288938   7.677   9.600   7.415
28031SOL     OW88939   8.729   9.655   6.530
28031SOL    HW188940   8.643   9.605   6.517
28031SOL    HW288941   8.791   9.601   6.586
28032SOL     OW88942   8.255   9.915   7.051
28032SOL    HW188943   8.208   9.912   7.140
28032SOL    HW288944   8.204   9.860   6.985
28033SOL     OW88945   8.842   9.779   7.260
28033SOL    HW188946   8.822   9.822   7.348
28033SOL    HW288947   8.920   9.717   7.269
28034SOL     OW88948   8.439   9.720   6.828
28034SOL    HW188949   8.362   9.754   6.882
28034SOL    HW288950   8.405   9.669   6.749
28035SOL     OW88951   8.489  10.011   6.015
28035SOL    HW188952   8.515  10.007   6.111
28035SOL    HW288953   8.404   9.960   6.001
28036SOL     OW88954   8.313   9.658   5.781
28036SOL    HW188955   8.372   9.721   5.732
28036SOL    HW288956   8.332   9.564   5.752
28037SOL     OW88957   9.167   9.895   7.417
28037SOL    HW188958   9.141   9.984   7.381
28037SOL    HW288959   9.165   9.827   7.344
28038SOL     OW88960   7.998   9.506   6.471
28038SOL    HW188961   7.993   9.501   6.571
28038SOL    HW288962   8.000   9.602   6.442
28039SOL     OW88963   8.906  10.045   6.314
28039SOL    HW188964   8.901   9.980   6.389
28039SOL    HW288965   8.986  10.104   6.327
28040SOL     OW88966   7.650   9.595   7.084
28040SOL    HW188967   7.570   9.655   7.071
28040SOL    HW288968   7.640   9.546   7.170
28041SOL     OW88969   8.848   9.417   6.012
28041SOL    HW188970   8.824   9.380   5.922
28041SOL    HW288971   8.947   9.433   6.016
28042SOL     OW88972   8.995   9.532   7.315
28042SOL    HW188973   8.990   9.569   7.407
28042SOL    HW288974   8.923   9.463   7.303
28043SOL     OW88975   8.062   9.432   5.703
28043SOL    HW188976   8.160   9.410   5.710
28043SOL    HW288977   8.031   9.415   5.610
28044SOL     OW88978   8.799   9.900   7.019
28044SOL    HW188979   8.827   9.857   7.104
28044SOL    HW288980   8.824   9.996   7.020
28045SOL     OW88981   8.370   9.813   6.485
28045SOL    HW188982   8.345   9.804   6.389
28045SOL    HW288983   8.418   9.731   6.516
28046SOL     OW88984   7.987   9.374   6.098
28046SOL    HW188985   7.906   9.375   6.156
28046SOL    HW288986   7.990   9.457   6.043
28047SOL     OW88987   7.745   9.345   5.757
28047SOL    HW188988   7.794   9.429   5.736
28047SOL    HW288989   7.807   9.280   5.802
28048SOL     OW88990   8.383   9.546   6.066
28048SOL    HW188991   8.335   9.587   5.988
28048SOL    HW288992   8.482   9.544   6.047
28049SOL     OW88993   8.524   9.993   7.050
28049SOL    HW188994   8.444   9.932   7.053
28049SOL    HW288995   8.605   9.940   7.026
28050SOL     OW88996   8.480   9.859   5.602
28050SOL    HW188997   8.439   9.941   5.563
28050SOL    HW288998   8.544   9.885   5.675
28051SOL     OW88999   7.526   9.866   6.972
28051SOL    HW189000   7.618   9.865   6.931
28051SOL    HW289001   7.520   9.940   7.039
28052SOL     OW89002   8.009   9.532   6.733
28052SOL    HW189003   8.047   9.448   6.770
28052SOL    HW289004   7.921   9.551   6.777
28053SOL     OW89005   8.314   9.764   6.228
28053SOL    HW189006   8.282   9.836   6.166
28053SOL    HW289007   8.338   9.683   6.175
28054SOL     OW89008   8.465   9.349   6.339
28054SOL    HW189009   8.393   9.354   6.270
28054SOL    HW289010   8.441   9.280   6.408
28055SOL     OW89011   8.914   9.900   6.578
28055SOL    HW189012   8.884   9.805   6.585
28055SOL    HW289013   8.987   9.916   6.644
28056SOL     OW89014   7.975   9.566   5.914
28056SOL    HW189015   8.002   9.507   5.839
28056SOL    HW289016   7.975   9.661   5.883
28057SOL     OW89017   8.722   9.696   6.848
28057SOL    HW189018   8.743   9.770   6.912
28057SOL    HW289019   8.633   9.713   6.805
28058SOL     OW89020   8.014   9.847   6.451
28058SOL    HW189021   8.026   9.913   6.377
28058SOL    HW289022   8.060   9.881   6.534
28059SOL     OW89023   9.030   9.949   6.058
28059SOL    HW189024   8.999  10.010   6.131
28059SOL    HW289025   9.080  10.001   5.989
28060SOL     OW89026   7.952   9.360   7.326
28060SOL    HW189027   7.910   9.303   7.256
28060SOL    HW289028   7.886   9.429   7.358
28061SOL     OW89029   8.657   9.835   5.861
28061SOL    HW189030   8.670   9.751   5.915
28061SOL    HW289031   8.628   9.909   5.921
28062SOL     OW89032   7.755   9.523   6.817
28062SOL    HW189033   7.732   9.560   6.907
28062SOL    HW289034   7.725   9.428   6.811
28063SOL     OW89035   8.180   9.944   6.650
28063SOL    HW189036   8.239   9.918   6.574
28063SOL    HW289037   8.152  10.040   6.639
28064SOL     OW89038   7.755   9.373   6.204
28064SOL    HW189039   7.744   9.467   6.237
28064SOL    HW289040   7.750   9.310   6.281
28065SOL     OW89041   9.070   9.677   5.960
28065SOL    HW189042   9.072   9.601   6.024
28065SOL    HW289043   9.022   9.754   6.000
28066SOL     OW89044   8.988   9.584   5.711
28066SOL    HW189045   8.927   9.509   5.734
28066SOL    HW289046   9.010   9.636   5.794
28067SOL     OW89047   7.767  10.120   6.535
28067SOL    HW189048   7.860  10.156   6.540
28067SOL    HW289049   7.761  10.035   6.587
28068SOL     OW89050   7.787   9.819   6.592
28068SOL    HW189051   7.735   9.736   6.575
28068SOL    HW289052   7.864   9.824   6.528
28069SOL     OW89053   8.586   9.690   7.264
28069SOL    HW189054   8.541   9.753   7.328
28069SOL    HW289055   8.679   9.721   7.247
28070SOL     OW89056   8.608   9.517   7.063
28070SOL    HW189057   8.608   9.581   7.140
28070SOL    HW289058   8.636   9.565   6.980
28071SOL     OW89059   7.488   9.854   6.700
28071SOL    HW189060   7.573   9.821   6.659
28071SOL    HW289061   7.501   9.869   6.798
28072SOL     OW89062   7.637   9.830   7.308
28072SOL    HW189063   7.696   9.790   7.238
28072SOL    HW289064   7.579   9.901   7.267
28073SOL     OW89065   8.263   9.882   5.911
28073SOL    HW189066   8.270   9.793   5.865
28073SOL    HW289067   8.169   9.916   5.903
28074SOL     OW89068   9.105   9.914   6.792
28074SOL    HW189069   9.067   9.845   6.854
28074SOL    HW289070   9.187   9.878   6.748
28075SOL     OW89071   8.119   9.774   6.855
28075SOL    HW189072   8.085   9.685   6.825
28075SOL    HW289073   8.145   9.828   6.775
28076SOL     OW89074   9.174   9.445   6.109
28076SOL    HW189075   9.247   9.428   6.042
28076SOL    HW289076   9.143   9.358   6.147
28077SOL     OW89077   9.289   9.485   6.549
28077SOL    HW189078   9.328   9.400   6.513
28077SOL    HW289079   9.191   9.487   6.530
28078SOL     OW89080   7.711   9.636   6.306
28078SOL    HW189081   7.632   9.687   6.272
28078SOL    HW289082   7.702   9.621   6.404
28079SOL     OW89083   8.462   9.546   6.557
28079SOL    HW189084   8.454   9.510   6.464
28079SOL    HW289085   8.460   9.470   6.622
28080SOL     OW89086   9.157   9.695   6.967
28080SOL    HW189087   9.230   9.764   6.971
28080SOL    HW289088   9.185   9.620   6.908
28081SOL     OW89089   7.523   9.655   5.619
28081SOL    HW189090   7.431   9.627   5.590
28081SOL    HW289091   7.554   9.732   5.563
28082SOL     OW89092   7.520   9.476   5.904
28082SOL    HW189093   7.503   9.559   5.850
28082SOL    HW289094   7.610   9.439   5.882
28083SOL     OW89095   8.164   9.875   7.294
28083SOL    HW189096   8.183   9.940   7.368
28083SOL    HW289097   8.224   9.795   7.303
28084SOL     OW89098   8.673   9.635   6.035
28084SOL    HW189099   8.738   9.561   6.024
28084SOL    HW289100   8.693   9.685   6.119
28085SOL     OW89101   9.225   9.652   7.228
28085SOL    HW189102   9.208   9.683   7.134
28085SOL    HW289103   9.141   9.615   7.266
28086SOL     OW89104   8.531  10.294   5.673
28086SOL    HW189105   8.508  10.347   5.591
28086SOL    HW289106   8.612  10.238   5.654
28087SOL     OW89107   9.272   9.502   6.813
28087SOL    HW189108   9.268   9.412   6.857
28087SOL    HW289109   9.275   9.491   6.714
28088SOL     OW89110   7.876   9.734   6.106
28088SOL    HW189111   7.906   9.662   6.044
28088SOL    HW289112   7.837   9.694   6.189
28089SOL     OW89113   7.765   9.857   6.866
28089SOL    HW189114   7.803   9.798   6.938
28089SOL    HW289115   7.805   9.831   6.778
28090SOL     OW89116   8.872   9.524   6.698
28090SOL    HW189117   8.924   9.459   6.753
28090SOL    HW289118   8.823   9.587   6.759
28091SOL     OW89119   8.449   9.344   6.740
28091SOL    HW189120   8.386   9.272   6.709
28091SOL    HW289121   8.542   9.308   6.740
28092SOL     OW89122   8.800   9.362   5.754
28092SOL    HW189123   8.835   9.321   5.670
28092SOL    HW289124   8.710   9.324   5.774
28093SOL     OW89125   8.748   9.763   6.277
28093SOL    HW189126   8.689   9.843   6.281
28093SOL    HW289127   8.763   9.728   6.370
28094SOL     OW89128   9.041   9.531   6.468
28094SOL    HW189129   8.957   9.530   6.522
28094SOL    HW289130   9.043   9.614   6.412
28095SOL     OW89131   7.673   9.585   8.444
28095SOL    HW189132   7.708   9.568   8.536
28095SOL    HW289133   7.585   9.540   8.432
28096SOL     OW89134   7.467   9.678   8.095
28096SOL    HW189135   7.385   9.721   8.134
28096SOL    HW289136   7.439   9.605   8.032
28097SOL     OW89137   9.203   9.917   7.679
28097SOL    HW189138   9.191   9.904   7.580
28097SOL    HW289139   9.173   9.836   7.728
28098SOL     OW89140   7.886   9.702   8.947
28098SOL    HW189141   7.968   9.646   8.956
28098SOL    HW289142   7.805   9.644   8.951
28099SOL     OW89143   9.051   9.757   8.185
28099SOL    HW189144   8.977   9.803   8.135
28099SOL    HW289145   9.102   9.825   8.238
28100SOL     OW89146   9.042   9.424   8.928
28100SOL    HW189147   9.024   9.491   8.856
28100SOL    HW289148   9.039   9.470   9.017
28101SOL     OW89149   8.257   9.314   7.950
28101SOL    HW189150   8.297   9.405   7.941
28101SOL    HW289151   8.157   9.322   7.956
28102SOL     OW89152   7.765   9.561   9.249
28102SOL    HW189153   7.836   9.632   9.255
28102SOL    HW289154   7.677   9.600   9.277
28103SOL     OW89155   8.729   9.655   8.392
28103SOL    HW189156   8.643   9.605   8.379
28103SOL    HW289157   8.791   9.601   8.448
28104SOL     OW89158   8.255   9.915   8.913
28104SOL    HW189159   8.208   9.912   9.002
28104SOL    HW289160   8.204   9.860   8.847
28105SOL     OW89161   8.842   9.779   9.122
28105SOL    HW189162   8.822   9.822   9.210
28105SOL    HW289163   8.920   9.717   9.131
28106SOL     OW89164   8.439   9.720   8.690
28106SOL    HW189165   8.362   9.754   8.744
28106SOL    HW289166   8.405   9.669   8.611
28107SOL     OW89167   8.489  10.011   7.877
28107SOL    HW189168   8.515  10.007   7.973
28107SOL    HW289169   8.404   9.960   7.863
28108SOL     OW89170   8.313   9.658   7.643
28108SOL    HW189171   8.372   9.721   7.594
28108SOL    HW289172   8.332   9.564   7.614
28109SOL     OW89173   9.167   9.895   9.279
28109SOL    HW189174   9.141   9.984   9.243
28109SOL    HW289175   9.165   9.827   9.206
28110SOL     OW89176   7.998   9.506   8.333
28110SOL    HW189177   7.993   9.501   8.433
28110SOL    HW289178   8.000   9.602   8.304
28111SOL     OW89179   8.906  10.045   8.176
28111SOL    HW189180   8.901   9.980   8.251
28111SOL    HW289181   8.986  10.104   8.189
28112SOL     OW89182   7.650   9.595   8.946
28112SOL    HW189183   7.570   9.655   8.933
28112SOL    HW289184   7.640   9.546   9.032
28113SOL     OW89185   8.848   9.417   7.874
28113SOL    HW189186   8.824   9.380   7.784
28113SOL    HW289187   8.947   9.433   7.878
28114SOL     OW89188   8.995   9.532   9.177
28114SOL    HW189189   8.990   9.569   9.269
28114SOL    HW289190   8.923   9.463   9.165
28115SOL     OW89191   8.062   9.432   7.565
28115SOL    HW189192   8.160   9.410   7.572
28115SOL    HW289193   8.031   9.415   7.472
28116SOL     OW89194   8.229   9.574   9.197
28116SOL    HW189195   8.296   9.513   9.240
28116SOL    HW289196   8.156   9.593   9.262
28117SOL     OW89197   8.799   9.900   8.881
28117SOL    HW189198   8.827   9.857   8.966
28117SOL    HW289199   8.824   9.996   8.882
28118SOL     OW89200   8.370   9.813   8.347
28118SOL    HW189201   8.345   9.804   8.251
28118SOL    HW289202   8.418   9.731   8.378
28119SOL     OW89203   7.987   9.374   7.960
28119SOL    HW189204   7.906   9.375   8.018
28119SOL    HW289205   7.990   9.457   7.905
28120SOL     OW89206   7.745   9.345   7.619
28120SOL    HW189207   7.794   9.429   7.598
28120SOL    HW289208   7.807   9.280   7.664
28121SOL     OW89209   8.383   9.546   7.928
28121SOL    HW189210   8.335   9.587   7.850
28121SOL    HW289211   8.482   9.544   7.909
28122SOL     OW89212   8.524   9.993   8.912
28122SOL    HW189213   8.444   9.932   8.915
28122SOL    HW289214   8.605   9.940   8.888
28123SOL     OW89215   8.480   9.859   7.464
28123SOL    HW189216   8.439   9.941   7.425
28123SOL    HW289217   8.544   9.885   7.537
28124SOL     OW89218   7.526   9.866   8.834
28124SOL    HW189219   7.618   9.865   8.793
28124SOL    HW289220   7.520   9.940   8.901
28125SOL     OW89221   8.009   9.532   8.595
28125SOL    HW189222   8.047   9.448   8.632
28125SOL    HW289223   7.921   9.551   8.639
28126SOL     OW89224   8.314   9.764   8.090
28126SOL    HW189225   8.282   9.836   8.028
28126SOL    HW289226   8.338   9.683   8.037
28127SOL     OW89227   8.465   9.349   8.201
28127SOL    HW189228   8.393   9.354   8.132
28127SOL    HW289229   8.441   9.280   8.270
28128SOL     OW89230   8.914   9.900   8.440
28128SOL    HW189231   8.884   9.805   8.447
28128SOL    HW289232   8.987   9.916   8.506
28129SOL     OW89233   7.975   9.566   7.776
28129SOL    HW189234   8.002   9.507   7.701
28129SOL    HW289235   7.975   9.661   7.745
28130SOL     OW89236   8.363   9.399   8.850
28130SOL    HW189237   8.388   9.379   8.755
28130SOL    HW289238   8.435   9.455   8.892
28131SOL     OW89239   8.722   9.696   8.710
28131SOL    HW189240   8.743   9.770   8.774
28131SOL    HW289241   8.633   9.713   8.667
28132SOL     OW89242   8.014   9.847   8.313
28132SOL    HW189243   8.026   9.913   8.239
28132SOL    HW289244   8.060   9.881   8.396
28133SOL     OW89245   9.030   9.949   7.920
28133SOL    HW189246   8.999  10.010   7.993
28133SOL    HW289247   9.080  10.001   7.851
28134SOL     OW89248   8.461   9.415   9.218
28134SOL    HW189249   8.467   9.500   9.166
28134SOL    HW289250   8.493   9.339   9.161
28135SOL     OW89251   7.952   9.360   9.188
28135SOL    HW189252   7.910   9.303   9.118
28135SOL    HW289253   7.886   9.429   9.220
28136SOL     OW89254   8.657   9.835   7.723
28136SOL    HW189255   8.670   9.751   7.777
28136SOL    HW289256   8.628   9.909   7.783
28137SOL     OW89257   7.755   9.523   8.679
28137SOL    HW189258   7.732   9.560   8.769
28137SOL    HW289259   7.725   9.428   8.673
28138SOL     OW89260   8.180   9.944   8.512
28138SOL    HW189261   8.239   9.918   8.436
28138SOL    HW289262   8.152  10.040   8.501
28139SOL     OW89263   7.755   9.373   8.066
28139SOL    HW189264   7.744   9.467   8.099
28139SOL    HW289265   7.750   9.310   8.143
28140SOL     OW89266   9.070   9.677   7.822
28140SOL    HW189267   9.072   9.601   7.886
28140SOL    HW289268   9.022   9.754   7.862
28141SOL     OW89269   8.988   9.584   7.573
28141SOL    HW189270   8.927   9.509   7.596
28141SOL    HW289271   9.010   9.636   7.656
28142SOL     OW89272   7.767  10.120   8.397
28142SOL    HW189273   7.860  10.156   8.402
28142SOL    HW289274   7.761  10.035   8.449
28143SOL     OW89275   7.787   9.819   8.454
28143SOL    HW189276   7.735   9.736   8.437
28143SOL    HW289277   7.864   9.824   8.390
28144SOL     OW89278   8.586   9.690   9.126
28144SOL    HW189279   8.541   9.753   9.190
28144SOL    HW289280   8.679   9.721   9.109
28145SOL     OW89281   8.608   9.517   8.925
28145SOL    HW189282   8.608   9.581   9.002
28145SOL    HW289283   8.636   9.565   8.842
28146SOL     OW89284   7.488   9.854   8.562
28146SOL    HW189285   7.573   9.821   8.521
28146SOL    HW289286   7.501   9.869   8.660
28147SOL     OW89287   7.637   9.830   9.170
28147SOL    HW189288   7.696   9.790   9.100
28147SOL    HW289289   7.579   9.901   9.129
28148SOL     OW89290   8.263   9.882   7.773
28148SOL    HW189291   8.270   9.793   7.727
28148SOL    HW289292   8.169   9.916   7.765
28149SOL     OW89293   9.105   9.914   8.654
28149SOL    HW189294   9.067   9.845   8.716
28149SOL    HW289295   9.187   9.878   8.610
28150SOL     OW89296   8.119   9.774   8.717
28150SOL    HW189297   8.085   9.685   8.687
28150SOL    HW289298   8.145   9.828   8.637
28151SOL     OW89299   9.174   9.445   7.971
28151SOL    HW189300   9.247   9.428   7.904
28151SOL    HW289301   9.143   9.358   8.009
28152SOL     OW89302   9.289   9.485   8.411
28152SOL    HW189303   9.328   9.400   8.375
28152SOL    HW289304   9.191   9.487   8.392
28153SOL     OW89305   7.711   9.636   8.168
28153SOL    HW189306   7.632   9.687   8.134
28153SOL    HW289307   7.702   9.621   8.266
28154SOL     OW89308   8.462   9.546   8.419
28154SOL    HW189309   8.454   9.510   8.326
28154SOL    HW289310   8.460   9.470   8.484
28155SOL     OW89311   9.157   9.695   8.829
28155SOL    HW189312   9.230   9.764   8.833
28155SOL    HW289313   9.185   9.620   8.770
28156SOL     OW89314   8.120   9.513   8.937
28156SOL    HW189315   8.210   9.497   8.897
28156SOL    HW289316   8.128   9.518   9.036
28157SOL     OW89317   7.523   9.655   7.481
28157SOL    HW189318   7.431   9.627   7.452
28157SOL    HW289319   7.554   9.732   7.425
28158SOL     OW89320   7.520   9.476   7.766
28158SOL    HW189321   7.503   9.559   7.712
28158SOL    HW289322   7.610   9.439   7.744
28159SOL     OW89323   8.164   9.875   9.156
28159SOL    HW189324   8.183   9.940   9.230
28159SOL    HW289325   8.224   9.795   9.165
28160SOL     OW89326   8.673   9.635   7.897
28160SOL    HW189327   8.738   9.561   7.886
28160SOL    HW289328   8.693   9.685   7.981
28161SOL     OW89329   9.225   9.652   9.090
28161SOL    HW189330   9.208   9.683   8.996
28161SOL    HW289331   9.141   9.615   9.128
28162SOL     OW89332   8.531  10.294   7.535
28162SOL    HW189333   8.508  10.347   7.453
28162SOL    HW289334   8.612  10.238   7.516
28163SOL     OW89335   9.272   9.502   8.675
28163SOL    HW189336   9.268   9.412   8.719
28163SOL    HW289337   9.275   9.491   8.576
28164SOL     OW89338   7.876   9.734   7.968
28164SOL    HW189339   7.906   9.662   7.906
28164SOL    HW289340   7.837   9.694   8.051
28165SOL     OW89341   7.765   9.857   8.728
28165SOL    HW189342   7.803   9.798   8.800
28165SOL    HW289343   7.805   9.831   8.640
28166SOL     OW89344   8.872   9.524   8.560
28166SOL    HW189345   8.924   9.459   8.615
28166SOL    HW289346   8.823   9.587   8.621
28167SOL     OW89347   8.449   9.344   8.602
28167SOL    HW189348   8.386   9.272   8.571
28167SOL    HW289349   8.542   9.308   8.602
28168SOL     OW89350   8.800   9.362   7.616
28168SOL    HW189351   8.835   9.321   7.532
28168SOL    HW289352   8.710   9.324   7.636
28169SOL     OW89353   8.748   9.763   8.139
28169SOL    HW189354   8.689   9.843   8.143
28169SOL    HW289355   8.763   9.728   8.232
28170SOL     OW89356   9.041   9.531   8.330
28170SOL    HW189357   8.957   9.530   8.384
28170SOL    HW289358   9.043   9.614   8.274
28171SOL     OW89359   9.203   9.917   9.541
28171SOL    HW189360   9.191   9.904   9.442
28171SOL    HW289361   9.173   9.836   9.590
28172SOL     OW89362   7.570   9.953   9.873
28172SOL    HW189363   7.525   9.865   9.890
28172SOL    HW289364   7.569  10.007   9.957
28173SOL     OW89365   8.257   9.314   9.812
28173SOL    HW189366   8.297   9.405   9.803
28173SOL    HW289367   8.157   9.322   9.818
28174SOL     OW89368   8.313   9.658   9.505
28174SOL    HW189369   8.372   9.721   9.456
28174SOL    HW289370   8.332   9.564   9.476
28175SOL     OW89371   8.848   9.417   9.736
28175SOL    HW189372   8.824   9.380   9.646
28175SOL    HW289373   8.947   9.433   9.740
28176SOL     OW89374   8.062   9.432   9.427
28176SOL    HW189375   8.160   9.410   9.434
28176SOL    HW289376   8.031   9.415   9.334
28177SOL     OW89377   7.987   9.374   9.822
28177SOL    HW189378   7.906   9.375   9.880
28177SOL    HW289379   7.990   9.457   9.767
28178SOL     OW89380   7.745   9.345   9.481
28178SOL    HW189381   7.794   9.429   9.460
28178SOL    HW289382   7.807   9.280   9.526
28179SOL     OW89383   8.383   9.546   9.790
28179SOL    HW189384   8.335   9.587   9.712
28179SOL    HW289385   8.482   9.544   9.771
28180SOL     OW89386   8.480   9.859   9.326
28180SOL    HW189387   8.439   9.941   9.287
28180SOL    HW289388   8.544   9.885   9.399
28181SOL     OW89389   7.975   9.566   9.638
28181SOL    HW189390   8.002   9.507   9.563
28181SOL    HW289391   7.975   9.661   9.607
28182SOL     OW89392   9.030   9.949   9.782
28182SOL    HW189393   8.999  10.010   9.855
28182SOL    HW289394   9.080  10.001   9.713
28183SOL     OW89395   8.657   9.835   9.585
28183SOL    HW189396   8.670   9.751   9.639
28183SOL    HW289397   8.628   9.909   9.645
28184SOL     OW89398   7.755   9.373   9.928
28184SOL    HW189399   7.744   9.467   9.961
28184SOL    HW289400   7.750   9.310  10.005
28185SOL     OW89401   9.070   9.677   9.684
28185SOL    HW189402   9.072   9.601   9.748
28185SOL    HW289403   9.022   9.754   9.724
28186SOL     OW89404   8.988   9.584   9.435
28186SOL    HW189405   8.927   9.509   9.458
28186SOL    HW289406   9.010   9.636   9.518
28187SOL     OW89407   7.787   9.819  10.316
28187SOL    HW189408   7.735   9.736  10.299
28187SOL    HW289409   7.864   9.824  10.252
28188SOL     OW89410   9.174   9.445   9.833
28188SOL    HW189411   9.247   9.428   9.766
28188SOL    HW289412   9.143   9.358   9.871
28189SOL     OW89413   7.523   9.655   9.343
28189SOL    HW189414   7.431   9.627   9.314
28189SOL    HW289415   7.554   9.732   9.287
28190SOL     OW89416   7.520   9.476   9.628
28190SOL    HW189417   7.503   9.559   9.574
28190SOL    HW289418   7.610   9.439   9.606
28191SOL     OW89419   8.673   9.635   9.759
28191SOL    HW189420   8.738   9.561   9.748
28191SOL    HW289421   8.693   9.685   9.843
28192SOL     OW89422   8.531  10.294   9.397
28192SOL    HW189423   8.508  10.347   9.315
28192SOL    HW289424   8.612  10.238   9.378
28193SOL     OW89425   7.876   9.734   9.830
28193SOL    HW189426   7.906   9.662   9.768
28193SOL    HW289427   7.837   9.694   9.913
28194SOL     OW89428   8.800   9.362   9.478
28194SOL    HW189429   8.835   9.321   9.394
28194SOL    HW289430   8.710   9.324   9.498
28195SOL     OW89431   8.748   9.763  10.001
28195SOL    HW189432   8.689   9.843  10.005
28195SOL    HW289433   8.763   9.728  10.094
28196SOL     OW89434   9.540   0.628   0.113
28196SOL    HW189435   9.447   0.626   0.150
28196SOL    HW289436   9.541   0.589   0.021
28197SOL     OW89437   9.535   0.275   0.996
28197SOL    HW189438   9.570   0.258   1.088
28197SOL    HW289439   9.447   0.230   0.984
28198SOL     OW89440   9.329   0.368   0.647
28198SOL    HW189441   9.247   0.411   0.686
28198SOL    HW289442   9.301   0.295   0.584
28199SOL     OW89443   9.879   1.275   1.165
28199SOL    HW189444   9.786   1.268   1.128
28199SOL    HW289445   9.890   1.364   1.209
28200SOL     OW89446  10.160   0.798   1.823
28200SOL    HW189447  10.156   0.874   1.888
28200SOL    HW289448  10.182   0.834   1.732
28201SOL     OW89449   9.645   1.435   1.061
28201SOL    HW189450   9.567   1.404   1.008
28201SOL    HW289451   9.703   1.493   1.004
28202SOL     OW89452   9.550   1.091   0.886
28202SOL    HW189453   9.564   1.007   0.938
28202SOL    HW289454   9.495   1.155   0.941
28203SOL     OW89455   9.432   0.643   0.563
28203SOL    HW189456   9.387   0.555   0.580
28203SOL    HW289457   9.431   0.697   0.647
28204SOL     OW89458   9.423   0.737   1.597
28204SOL    HW189459   9.511   0.724   1.642
28204SOL    HW289460   9.410   0.834   1.575
28205SOL     OW89461   9.923   1.365   0.726
28205SOL    HW189462   9.874   1.278   0.735
28205SOL    HW289463   9.900   1.408   0.639
28206SOL     OW89464   9.507   0.976   1.264
28206SOL    HW189465   9.596   0.931   1.250
28206SOL    HW289466   9.434   0.911   1.245
28207SOL     OW89467   9.908   0.729   0.270
28207SOL    HW189468   9.932   0.798   0.202
28207SOL    HW289469   9.830   0.762   0.324
28208SOL     OW89470   9.386   0.811   0.789
28208SOL    HW189471   9.485   0.799   0.798
28208SOL    HW289472   9.362   0.906   0.810
28209SOL     OW89473   9.440   1.821   1.571
28209SOL    HW189474   9.430   1.806   1.670
28209SOL    HW289475   9.354   1.857   1.535
28210SOL     OW89476  10.175   0.348   0.195
28210SOL    HW189477  10.234   0.411   0.146
28210SOL    HW289478  10.194   0.254   0.166
28211SOL     OW89479   9.860   0.196   0.885
28211SOL    HW189480   9.855   0.191   0.985
28211SOL    HW289481   9.862   0.292   0.856
28212SOL     OW89482   9.661   1.801   0.853
28212SOL    HW189483   9.711   1.715   0.859
28212SOL    HW289484   9.726   1.878   0.850
28213SOL     OW89485   9.631   0.943   0.242
28213SOL    HW189486   9.713   0.982   0.200
28213SOL    HW289487   9.604   0.861   0.193
28214SOL     OW89488   9.771   1.266   1.727
28214SOL    HW189489   9.721   1.267   1.641
28214SOL    HW289490   9.708   1.248   1.803
28215SOL     OW89491   9.512   0.285   1.498
28215SOL    HW189492   9.432   0.345   1.485
28215SOL    HW289493   9.502   0.236   1.584
28216SOL     OW89494   9.559   1.785   1.241
28216SOL    HW189495   9.616   1.720   1.291
28216SOL    HW289496   9.543   1.752   1.148
28217SOL     OW89497   9.692   0.700   0.480
28217SOL    HW189498   9.737   0.610   0.477
28217SOL    HW289499   9.598   0.689   0.513
28218SOL     OW89500  10.113   1.402   0.924
28218SOL    HW189501  10.203   1.416   0.882
28218SOL    HW289502  10.042   1.404   0.853
28219SOL     OW89503   9.849   0.064   0.512
28219SOL    HW189504   9.768   0.065   0.570
28219SOL    HW289505   9.852   0.147   0.457
28220SOL     OW89506   9.607   0.035   0.171
28220SOL    HW189507   9.656   0.119   0.150
28220SOL    HW289508   9.669  -0.030   0.216
28221SOL     OW89509  10.245   0.236   0.480
28221SOL    HW189510  10.197   0.277   0.402
28221SOL    HW289511  10.344   0.234   0.461
28222SOL     OW89512   9.769   1.152   0.741
28222SOL    HW189513   9.698   1.125   0.806
28222SOL    HW289514   9.743   1.124   0.648
28223SOL     OW89515   9.388   0.556   1.386
28223SOL    HW189516   9.480   0.555   1.345
28223SOL    HW289517   9.382   0.630   1.453
28224SOL     OW89518   9.837   0.256   0.328
28224SOL    HW189519   9.864   0.197   0.253
28224SOL    HW289520   9.837   0.351   0.297
28225SOL     OW89521   9.720   0.813   1.251
28225SOL    HW189522   9.806   0.825   1.301
28225SOL    HW289523   9.678   0.726   1.278
28226SOL     OW89524   9.374   1.564   1.331
28226SOL    HW189525   9.328   1.646   1.297
28226SOL    HW289526   9.472   1.583   1.340
28227SOL     OW89527   9.677   1.100   0.501
28227SOL    HW189528   9.670   1.183   0.445
28227SOL    HW289529   9.681   1.020   0.441
28228SOL     OW89530   9.876   0.537   0.865
28228SOL    HW189531   9.888   0.603   0.791
28228SOL    HW289532   9.922   0.571   0.948
28229SOL     OW89533   9.664   1.510   1.329
28229SOL    HW189534   9.643   1.466   1.242
28229SOL    HW289535   9.761   1.536   1.332
28230SOL     OW89536   9.712   0.751   1.598
28230SOL    HW189537   9.780   0.806   1.551
28230SOL    HW289538   9.752   0.663   1.625
28231SOL     OW89539   9.883   0.870   1.029
28231SOL    HW189540   9.927   0.959   1.020
28231SOL    HW289541   9.820   0.870   1.106
28232SOL     OW89542   9.617   0.213   1.231
28232SOL    HW189543   9.594   0.250   1.321
28232SOL    HW289544   9.587   0.118   1.225
28233SOL     OW89545   9.347   1.310   1.282
28233SOL    HW189546   9.400   1.261   1.350
28233SOL    HW289547   9.369   1.408   1.287
28234SOL     OW89548   9.617   0.063   0.618
28234SOL    HW189549   9.606   0.157   0.651
28234SOL    HW289550   9.612   0.000   0.695
28235SOL     OW89551   9.660   0.898   1.804
28235SOL    HW189552   9.736   0.942   1.852
28235SOL    HW289553   9.695   0.851   1.722
28236SOL     OW89554   9.629   0.810   0.949
28236SOL    HW189555   9.722   0.846   0.954
28236SOL    HW289556   9.623   0.725   1.001
28237SOL     OW89557   9.649   0.509   1.006
28237SOL    HW189558   9.597   0.426   0.989
28237SOL    HW289559   9.726   0.514   0.942
28238SOL     OW89560   9.318   1.326   0.200
28238SOL    HW189561   9.225   1.347   0.169
28238SOL    HW289562   9.328   1.227   0.213
28239SOL     OW89563   9.398   1.801   0.927
28239SOL    HW189564   9.356   1.715   0.900
28239SOL    HW289565   9.492   1.804   0.893
28240SOL     OW89566   9.814   1.568   0.910
28240SOL    HW189567   9.880   1.642   0.919
28240SOL    HW289568   9.858   1.489   0.868
28241SOL     OW89569   9.350   0.544   1.114
28241SOL    HW189570   9.435   0.511   1.073
28241SOL    HW289571   9.363   0.559   1.212
28242SOL     OW89572   9.499   0.520   1.722
28242SOL    HW189573   9.558   0.480   1.652
28242SOL    HW289574   9.441   0.591   1.681
28243SOL     OW89575  10.125   0.572   0.325
28243SOL    HW189576  10.132   0.483   0.279
28243SOL    HW289577  10.031   0.606   0.317
28244SOL     OW89578   9.562   1.564   1.744
28244SOL    HW189579   9.532   1.621   1.820
28244SOL    HW289580   9.555   1.467   1.770
28245SOL     OW89581   9.783   0.500   0.191
28245SOL    HW189582   9.844   0.580   0.195
28245SOL    HW289583   9.688   0.531   0.198
28246SOL     OW89584   9.469   1.137   1.466
28246SOL    HW189585   9.491   1.076   1.542
28246SOL    HW289586   9.479   1.088   1.380
28247SOL     OW89587   9.393   1.258   1.022
28247SOL    HW189588   9.388   1.257   1.122
28247SOL    HW289589   9.310   1.217   0.984
28248SOL     OW89590   9.998   1.662   1.716
28248SOL    HW189591   9.942   1.743   1.725
28248SOL    HW289592  10.050   1.666   1.630
28249SOL     OW89593   9.440   1.794   1.851
28249SOL    HW189594   9.399   1.720   1.904
28249SOL    HW289595   9.504   1.845   1.909
28250SOL     OW89596   9.573   0.326   0.720
28250SOL    HW189597   9.494   0.377   0.686
28250SOL    HW289598   9.564   0.311   0.818
28251SOL     OW89599   9.682   1.288   1.490
28251SOL    HW189600   9.669   1.381   1.456
28251SOL    HW289601   9.598   1.236   1.477
28252SOL     OW89602   9.385   0.345   0.033
28252SOL    HW189603   9.293   0.317   0.004
28252SOL    HW289604   9.416   0.422  -0.023
28253SOL     OW89605   9.923   0.842   1.431
28253SOL    HW189606   9.979   0.923   1.414
28253SOL    HW289607   9.982   0.762   1.434
28254SOL     OW89608   9.700   1.741   1.560
28254SOL    HW189609   9.609   1.782   1.558
28254SOL    HW289610   9.693   1.647   1.592
28255SOL     OW89611   9.904   0.745   0.652
28255SOL    HW189612   9.954   0.830   0.633
28255SOL    HW289613   9.816   0.747   0.604
28256SOL     OW89614   9.531   1.314   1.844
28256SOL    HW189615   9.466   1.241   1.823
28256SOL    HW289616   9.535   1.328   1.942
28257SOL     OW89617   9.389   1.240   0.653
28257SOL    HW189618   9.388   1.193   0.741
28257SOL    HW289619   9.471   1.212   0.602
28258SOL     OW89620   9.982   1.391   1.624
28258SOL    HW189621   9.904   1.341   1.662
28258SOL    HW289622   9.979   1.486   1.655
28259SOL     OW89623   9.738   0.424   0.520
28259SOL    HW189624   9.768   0.352   0.458
28259SOL    HW289625   9.699   0.384   0.603
28260SOL     OW89626   9.627   0.547   1.280
28260SOL    HW189627   9.665   0.488   1.352
28260SOL    HW289628   9.667   0.521   1.192
28261SOL     OW89629   9.349   1.077   0.300
28261SOL    HW189630   9.448   1.066   0.291
28261SOL    HW289631   9.309   0.991   0.332
28262SOL     OW89632   9.535   0.275   2.858
28262SOL    HW189633   9.570   0.258   2.950
28262SOL    HW289634   9.447   0.230   2.846
28263SOL     OW89635   9.329   0.368   2.509
28263SOL    HW189636   9.247   0.411   2.548
28263SOL    HW289637   9.301   0.295   2.446
28264SOL     OW89638  10.160   0.798   3.685
28264SOL    HW189639  10.156   0.874   3.750
28264SOL    HW289640  10.182   0.834   3.594
28265SOL     OW89641   9.748   0.392   3.361
28265SOL    HW189642   9.830   0.336   3.370
28265SOL    HW289643   9.667   0.334   3.365
28266SOL     OW89644   9.540   1.434   2.400
28266SOL    HW189645   9.514   1.530   2.400
28266SOL    HW289646   9.469   1.380   2.445
28267SOL     OW89647   9.432   0.643   2.425
28267SOL    HW189648   9.387   0.555   2.442
28267SOL    HW289649   9.431   0.697   2.509
28268SOL     OW89650   9.337   1.596   1.979
28268SOL    HW189651   9.318   1.500   2.000
28268SOL    HW289652   9.304   1.654   2.054
28269SOL     OW89653   9.423   0.737   3.459
28269SOL    HW189654   9.511   0.724   3.504
28269SOL    HW289655   9.410   0.834   3.437
28270SOL     OW89656   9.923   1.365   2.588
28270SOL    HW189657   9.874   1.278   2.597
28270SOL    HW289658   9.900   1.408   2.501
28271SOL     OW89659   9.908   0.729   2.132
28271SOL    HW189660   9.932   0.798   2.064
28271SOL    HW289661   9.830   0.762   2.186
28272SOL     OW89662   9.386   0.811   2.651
28272SOL    HW189663   9.485   0.799   2.660
28272SOL    HW289664   9.362   0.906   2.672
28273SOL     OW89665   9.440   1.821   3.433
28273SOL    HW189666   9.430   1.806   3.532
28273SOL    HW289667   9.354   1.857   3.397
28274SOL     OW89668  10.175   0.348   2.057
28274SOL    HW189669  10.234   0.411   2.008
28274SOL    HW289670  10.194   0.254   2.028
28275SOL     OW89671   9.860   0.196   2.747
28275SOL    HW189672   9.855   0.191   2.847
28275SOL    HW289673   9.862   0.292   2.718
28276SOL     OW89674   9.661   1.801   2.715
28276SOL    HW189675   9.711   1.715   2.721
28276SOL    HW289676   9.726   1.878   2.712
28277SOL     OW89677   9.631   0.943   2.104
28277SOL    HW189678   9.713   0.982   2.062
28277SOL    HW289679   9.604   0.861   2.055
28278SOL     OW89680   9.771   1.266   3.589
28278SOL    HW189681   9.721   1.267   3.503
28278SOL    HW289682   9.708   1.248   3.665
28279SOL     OW89683   9.774   1.743   2.185
28279SOL    HW189684   9.807   1.782   2.271
28279SOL    HW289685   9.850   1.736   2.120
28280SOL     OW89686   9.559   1.785   3.103
28280SOL    HW189687   9.616   1.720   3.153
28280SOL    HW289688   9.543   1.752   3.010
28281SOL     OW89689   9.692   0.700   2.342
28281SOL    HW189690   9.737   0.610   2.339
28281SOL    HW289691   9.598   0.689   2.375
28282SOL     OW89692  10.113   1.402   2.786
28282SOL    HW189693  10.203   1.416   2.744
28282SOL    HW289694  10.042   1.404   2.715
28283SOL     OW89695   9.849   0.064   2.374
28283SOL    HW189696   9.768   0.065   2.432
28283SOL    HW289697   9.852   0.147   2.319
28284SOL     OW89698   9.607   0.035   2.033
28284SOL    HW189699   9.656   0.119   2.012
28284SOL    HW289700   9.669  -0.030   2.078
28285SOL     OW89701  10.245   0.236   2.342
28285SOL    HW189702  10.197   0.277   2.264
28285SOL    HW289703  10.344   0.234   2.323
28286SOL     OW89704   9.769   1.152   2.603
28286SOL    HW189705   9.698   1.125   2.668
28286SOL    HW289706   9.743   1.124   2.510
28287SOL     OW89707   9.388   0.556   3.248
28287SOL    HW189708   9.480   0.555   3.207
28287SOL    HW289709   9.382   0.630   3.315
28288SOL     OW89710   9.871   0.222   3.009
28288SOL    HW189711   9.909   0.138   3.046
28288SOL    HW289712   9.783   0.241   3.053
28289SOL     OW89713   9.374   1.564   3.193
28289SOL    HW189714   9.328   1.646   3.159
28289SOL    HW289715   9.472   1.583   3.202
28290SOL     OW89716   9.677   1.100   2.363
28290SOL    HW189717   9.670   1.183   2.307
28290SOL    HW289718   9.681   1.020   2.303
28291SOL     OW89719   9.876   0.537   2.727
28291SOL    HW189720   9.888   0.603   2.653
28291SOL    HW289721   9.922   0.571   2.810
28292SOL     OW89722   9.664   1.510   3.191
28292SOL    HW189723   9.643   1.466   3.104
28292SOL    HW289724   9.761   1.536   3.194
28293SOL     OW89725   9.712   0.751   3.460
28293SOL    HW189726   9.780   0.806   3.413
28293SOL    HW289727   9.752   0.663   3.487
28294SOL     OW89728   9.814   0.050   3.602
28294SOL    HW189729   9.772  -0.007   3.532
28294SOL    HW289730   9.748   0.119   3.634
28295SOL     OW89731   9.883   0.870   2.891
28295SOL    HW189732   9.927   0.959   2.882
28295SOL    HW289733   9.820   0.870   2.968
28296SOL     OW89734   9.617   0.213   3.093
28296SOL    HW189735   9.594   0.250   3.183
28296SOL    HW289736   9.587   0.118   3.087
28297SOL     OW89737   9.617   0.063   2.480
28297SOL    HW189738   9.606   0.157   2.513
28297SOL    HW289739   9.612   0.000   2.557
28298SOL     OW89740   9.660   0.898   3.666
28298SOL    HW189741   9.736   0.942   3.714
28298SOL    HW289742   9.695   0.851   3.584
28299SOL     OW89743   9.629   0.810   2.811
28299SOL    HW189744   9.722   0.846   2.816
28299SOL    HW289745   9.623   0.725   2.863
28300SOL     OW89746   9.649   0.509   2.868
28300SOL    HW189747   9.597   0.426   2.851
28300SOL    HW289748   9.726   0.514   2.804
28301SOL     OW89749   9.318   1.326   2.062
28301SOL    HW189750   9.225   1.347   2.031
28301SOL    HW289751   9.328   1.227   2.075
28302SOL     OW89752   9.398   1.801   2.789
28302SOL    HW189753   9.356   1.715   2.762
28302SOL    HW289754   9.492   1.804   2.755
28303SOL     OW89755   9.814   1.568   2.772
28303SOL    HW189756   9.880   1.642   2.781
28303SOL    HW289757   9.858   1.489   2.730
28304SOL     OW89758   9.350   0.544   2.976
28304SOL    HW189759   9.435   0.511   2.935
28304SOL    HW289760   9.363   0.559   3.074
28305SOL     OW89761   9.499   0.520   3.584
28305SOL    HW189762   9.558   0.480   3.514
28305SOL    HW289763   9.441   0.591   3.543
28306SOL     OW89764  10.125   0.572   2.187
28306SOL    HW189765  10.132   0.483   2.141
28306SOL    HW289766  10.031   0.606   2.179
28307SOL     OW89767   9.562   1.564   3.606
28307SOL    HW189768   9.532   1.621   3.682
28307SOL    HW289769   9.555   1.467   3.632
28308SOL     OW89770   9.998   1.662   3.578
28308SOL    HW189771   9.942   1.743   3.587
28308SOL    HW289772  10.050   1.666   3.492
28309SOL     OW89773   9.440   1.794   3.713
28309SOL    HW189774   9.399   1.720   3.766
28309SOL    HW289775   9.504   1.845   3.771
28310SOL     OW89776   9.573   0.326   2.582
28310SOL    HW189777   9.494   0.377   2.548
28310SOL    HW289778   9.564   0.311   2.680
28311SOL     OW89779   9.682   1.288   3.352
28311SOL    HW189780   9.669   1.381   3.318
28311SOL    HW289781   9.598   1.236   3.339
28312SOL     OW89782   9.900   1.487   2.353
28312SOL    HW189783   9.942   1.429   2.283
28312SOL    HW289784   9.856   1.566   2.309
28313SOL     OW89785   9.565   1.348   2.152
28313SOL    HW189786   9.469   1.349   2.125
28313SOL    HW289787   9.577   1.401   2.236
28314SOL     OW89788   9.415   1.013   3.588
28314SOL    HW189789   9.338   0.980   3.642
28314SOL    HW289790   9.500   0.983   3.630
28315SOL     OW89791   9.982   0.203   3.351
28315SOL    HW189792  10.072   0.187   3.311
28315SOL    HW289793   9.990   0.208   3.450
28316SOL     OW89794   9.385   0.345   1.895
28316SOL    HW189795   9.293   0.317   1.866
28316SOL    HW289796   9.416   0.422   1.839
28317SOL     OW89797   9.382   0.166   2.180
28317SOL    HW189798   9.365   0.249   2.126
28317SOL    HW289799   9.472   0.129   2.158
28318SOL     OW89800   9.923   0.842   3.293
28318SOL    HW189801   9.979   0.923   3.276
28318SOL    HW289802   9.982   0.762   3.296
28319SOL     OW89803   9.700   1.741   3.422
28319SOL    HW189804   9.609   1.782   3.420
28319SOL    HW289805   9.693   1.647   3.454
28320SOL     OW89806   9.904   0.745   2.514
28320SOL    HW189807   9.954   0.830   2.495
28320SOL    HW289808   9.816   0.747   2.466
28321SOL     OW89809   9.531   1.314   3.706
28321SOL    HW189810   9.466   1.241   3.685
28321SOL    HW289811   9.535   1.328   3.804
28322SOL     OW89812   9.389   1.240   2.515
28322SOL    HW189813   9.388   1.193   2.603
28322SOL    HW289814   9.471   1.212   2.464
28323SOL     OW89815   9.982   1.391   3.486
28323SOL    HW189816   9.904   1.341   3.524
28323SOL    HW289817   9.979   1.486   3.517
28324SOL     OW89818   9.738   0.424   2.382
28324SOL    HW189819   9.768   0.352   2.320
28324SOL    HW289820   9.699   0.384   2.465
28325SOL     OW89821   9.627   0.547   3.142
28325SOL    HW189822   9.665   0.488   3.214
28325SOL    HW289823   9.667   0.521   3.054
28326SOL     OW89824   9.349   1.077   2.162
28326SOL    HW189825   9.448   1.066   2.153
28326SOL    HW289826   9.309   0.991   2.194
28327SOL     OW89827   9.540   0.628   3.837
28327SOL    HW189828   9.447   0.626   3.874
28327SOL    HW289829   9.541   0.589   3.745
28328SOL     OW89830   9.535   0.275   4.720
28328SOL    HW189831   9.570   0.258   4.812
28328SOL    HW289832   9.447   0.230   4.708
28329SOL     OW89833   9.329   0.368   4.371
28329SOL    HW189834   9.247   0.411   4.410
28329SOL    HW289835   9.301   0.295   4.308
28330SOL     OW89836   9.879   1.275   4.889
28330SOL    HW189837   9.786   1.268   4.852
28330SOL    HW289838   9.890   1.364   4.933
28331SOL     OW89839  10.160   0.798   5.547
28331SOL    HW189840  10.156   0.874   5.612
28331SOL    HW289841  10.182   0.834   5.456
28332SOL     OW89842   9.645   1.435   4.785
28332SOL    HW189843   9.567   1.404   4.732
28332SOL    HW289844   9.703   1.493   4.728
28333SOL     OW89845   9.748   0.392   5.223
28333SOL    HW189846   9.830   0.336   5.232
28333SOL    HW289847   9.667   0.334   5.227
28334SOL     OW89848   9.541   1.713   4.207
28334SOL    HW189849   9.575   1.790   4.261
28334SOL    HW289850   9.585   1.713   4.117
28335SOL     OW89851   9.540   1.434   4.262
28335SOL    HW189852   9.514   1.530   4.262
28335SOL    HW289853   9.469   1.380   4.307
28336SOL     OW89854   9.337   1.596   3.841
28336SOL    HW189855   9.318   1.500   3.862
28336SOL    HW289856   9.304   1.654   3.916
28337SOL     OW89857   9.423   0.737   5.321
28337SOL    HW189858   9.511   0.724   5.366
28337SOL    HW289859   9.410   0.834   5.299
28338SOL     OW89860   9.923   1.365   4.450
28338SOL    HW189861   9.874   1.278   4.459
28338SOL    HW289862   9.900   1.408   4.363
28339SOL     OW89863   9.507   0.976   4.988
28339SOL    HW189864   9.596   0.931   4.974
28339SOL    HW289865   9.434   0.911   4.969
28340SOL     OW89866   9.627   0.251   5.525
28340SOL    HW189867   9.698   0.322   5.531
28340SOL    HW289868   9.539   0.290   5.553
28341SOL     OW89869   9.908   0.729   3.994
28341SOL    HW189870   9.932   0.798   3.926
28341SOL    HW289871   9.830   0.762   4.048
28342SOL     OW89872   9.440   1.821   5.295
28342SOL    HW189873   9.430   1.806   5.394
28342SOL    HW289874   9.354   1.857   5.259
28343SOL     OW89875   9.860   0.196   4.609
28343SOL    HW189876   9.855   0.191   4.709
28343SOL    HW289877   9.862   0.292   4.580
28344SOL     OW89878   9.661   1.801   4.577
28344SOL    HW189879   9.711   1.715   4.583
28344SOL    HW289880   9.726   1.878   4.574
28345SOL     OW89881   9.631   0.943   3.966
28345SOL    HW189882   9.713   0.982   3.924
28345SOL    HW289883   9.604   0.861   3.917
28346SOL     OW89884   9.771   1.266   5.451
28346SOL    HW189885   9.721   1.267   5.365
28346SOL    HW289886   9.708   1.248   5.527
28347SOL     OW89887   9.512   0.285   5.222
28347SOL    HW189888   9.432   0.345   5.209
28347SOL    HW289889   9.502   0.236   5.308
28348SOL     OW89890   9.774   1.743   4.047
28348SOL    HW189891   9.807   1.782   4.133
28348SOL    HW289892   9.850   1.736   3.982
28349SOL     OW89893   9.559   1.785   4.965
28349SOL    HW189894   9.616   1.720   5.015
28349SOL    HW289895   9.543   1.752   4.872
28350SOL     OW89896   9.924   0.122   3.841
28350SOL    HW189897  10.022   0.100   3.848
28350SOL    HW289898   9.893   0.105   3.748
28351SOL     OW89899  10.113   1.402   4.648
28351SOL    HW189900  10.203   1.416   4.606
28351SOL    HW289901  10.042   1.404   4.577
28352SOL     OW89902   9.769   1.152   4.465
28352SOL    HW189903   9.698   1.125   4.530
28352SOL    HW289904   9.743   1.124   4.372
28353SOL     OW89905   9.388   0.556   5.110
28353SOL    HW189906   9.480   0.555   5.069
28353SOL    HW289907   9.382   0.630   5.177
28354SOL     OW89908   9.871   0.222   4.871
28354SOL    HW189909   9.909   0.138   4.908
28354SOL    HW289910   9.783   0.241   4.915
28355SOL     OW89911   9.720   0.813   4.975
28355SOL    HW189912   9.806   0.825   5.025
28355SOL    HW289913   9.678   0.726   5.002
28356SOL     OW89914   9.374   1.564   5.055
28356SOL    HW189915   9.328   1.646   5.021
28356SOL    HW289916   9.472   1.583   5.064
28357SOL     OW89917   9.876   0.537   4.589
28357SOL    HW189918   9.888   0.603   4.515
28357SOL    HW289919   9.922   0.571   4.672
28358SOL     OW89920   9.664   1.510   5.053
28358SOL    HW189921   9.643   1.466   4.966
28358SOL    HW289922   9.761   1.536   5.056
28359SOL     OW89923   9.712   0.751   5.322
28359SOL    HW189924   9.780   0.806   5.275
28359SOL    HW289925   9.752   0.663   5.349
28360SOL     OW89926   9.814   0.050   5.464
28360SOL    HW189927   9.772  -0.007   5.394
28360SOL    HW289928   9.748   0.119   5.496
28361SOL     OW89929   9.883   0.870   4.753
28361SOL    HW189930   9.927   0.959   4.744
28361SOL    HW289931   9.820   0.870   4.830
28362SOL     OW89932   9.617   0.213   4.955
28362SOL    HW189933   9.594   0.250   5.045
28362SOL    HW289934   9.587   0.118   4.949
28363SOL     OW89935   9.347   1.310   5.006
28363SOL    HW189936   9.400   1.261   5.074
28363SOL    HW289937   9.369   1.408   5.011
28364SOL     OW89938   9.660   0.898   5.528
28364SOL    HW189939   9.736   0.942   5.576
28364SOL    HW289940   9.695   0.851   5.446
28365SOL     OW89941   9.649   0.509   4.730
28365SOL    HW189942   9.597   0.426   4.713
28365SOL    HW289943   9.726   0.514   4.666
28366SOL     OW89944   9.318   1.326   3.924
28366SOL    HW189945   9.225   1.347   3.893
28366SOL    HW289946   9.328   1.227   3.937
28367SOL     OW89947   9.398   1.801   4.651
28367SOL    HW189948   9.356   1.715   4.624
28367SOL    HW289949   9.492   1.804   4.617
28368SOL     OW89950   9.814   1.568   4.634
28368SOL    HW189951   9.880   1.642   4.643
28368SOL    HW289952   9.858   1.489   4.592
28369SOL     OW89953   9.350   0.544   4.838
28369SOL    HW189954   9.435   0.511   4.797
28369SOL    HW289955   9.363   0.559   4.936
28370SOL     OW89956   9.499   0.520   5.446
28370SOL    HW189957   9.558   0.480   5.376
28370SOL    HW289958   9.441   0.591   5.405
28371SOL     OW89959  10.125   0.572   4.049
28371SOL    HW189960  10.132   0.483   4.003
28371SOL    HW289961  10.031   0.606   4.041
28372SOL     OW89962   9.562   1.564   5.468
28372SOL    HW189963   9.532   1.621   5.544
28372SOL    HW289964   9.555   1.467   5.494
28373SOL     OW89965   9.469   1.137   5.190
28373SOL    HW189966   9.491   1.076   5.266
28373SOL    HW289967   9.479   1.088   5.104
28374SOL     OW89968   9.393   1.258   4.746
28374SOL    HW189969   9.388   1.257   4.846
28374SOL    HW289970   9.310   1.217   4.708
28375SOL     OW89971   9.998   1.662   5.440
28375SOL    HW189972   9.942   1.743   5.449
28375SOL    HW289973  10.050   1.666   5.354
28376SOL     OW89974   9.440   1.794   5.575
28376SOL    HW189975   9.399   1.720   5.628
28376SOL    HW289976   9.504   1.845   5.633
28377SOL     OW89977   9.682   1.288   5.214
28377SOL    HW189978   9.669   1.381   5.180
28377SOL    HW289979   9.598   1.236   5.201
28378SOL     OW89980   9.900   1.487   4.215
28378SOL    HW189981   9.942   1.429   4.145
28378SOL    HW289982   9.856   1.566   4.171
28379SOL     OW89983   9.565   1.348   4.014
28379SOL    HW189984   9.469   1.349   3.987
28379SOL    HW289985   9.577   1.401   4.098
28380SOL     OW89986   9.415   1.013   5.450
28380SOL    HW189987   9.338   0.980   5.504
28380SOL    HW289988   9.500   0.983   5.492
28381SOL     OW89989   9.982   0.203   5.213
28381SOL    HW189990  10.072   0.187   5.173
28381SOL    HW289991   9.990   0.208   5.312
28382SOL     OW89992   9.923   0.842   5.155
28382SOL    HW189993   9.979   0.923   5.138
28382SOL    HW289994   9.982   0.762   5.158
28383SOL     OW89995   9.700   1.741   5.284
28383SOL    HW189996   9.609   1.782   5.282
28383SOL    HW289997   9.693   1.647   5.316
28384SOL     OW89998   9.904   0.745   4.376
28384SOL    HW189999   9.954   0.830   4.357
28384SOL    HW290000   9.816   0.747   4.328
28385SOL     OW90001   9.531   1.314   5.568
28385SOL    HW190002   9.466   1.241   5.547
28385SOL    HW290003   9.535   1.328   5.666
28386SOL     OW90004   9.982   1.391   5.348
28386SOL    HW190005   9.904   1.341   5.386
28386SOL    HW290006   9.979   1.486   5.379
28387SOL     OW90007   9.627   0.547   5.004
28387SOL    HW190008   9.665   0.488   5.076
28387SOL    HW290009   9.667   0.521   4.916
28388SOL     OW90010   9.349   1.077   4.024
28388SOL    HW190011   9.448   1.066   4.015
28388SOL    HW290012   9.309   0.991   4.056
28389SOL     OW90013   9.540   0.628   5.699
28389SOL    HW190014   9.447   0.626   5.736
28389SOL    HW290015   9.541   0.589   5.607
28390SOL     OW90016   9.535   0.275   6.582
28390SOL    HW190017   9.570   0.258   6.674
28390SOL    HW290018   9.447   0.230   6.570
28391SOL     OW90019   9.329   0.368   6.233
28391SOL    HW190020   9.247   0.411   6.272
28391SOL    HW290021   9.301   0.295   6.170
28392SOL     OW90022   9.879   1.275   6.751
28392SOL    HW190023   9.786   1.268   6.714
28392SOL    HW290024   9.890   1.364   6.795
28393SOL     OW90025  10.160   0.798   7.409
28393SOL    HW190026  10.156   0.874   7.474
28393SOL    HW290027  10.182   0.834   7.318
28394SOL     OW90028   9.645   1.435   6.647
28394SOL    HW190029   9.567   1.404   6.594
28394SOL    HW290030   9.703   1.493   6.590
28395SOL     OW90031   9.748   0.392   7.085
28395SOL    HW190032   9.830   0.336   7.094
28395SOL    HW290033   9.667   0.334   7.089
28396SOL     OW90034   9.541   1.713   6.069
28396SOL    HW190035   9.575   1.790   6.123
28396SOL    HW290036   9.585   1.713   5.979
28397SOL     OW90037   9.540   1.434   6.124
28397SOL    HW190038   9.514   1.530   6.124
28397SOL    HW290039   9.469   1.380   6.169
28398SOL     OW90040   9.550   1.091   6.472
28398SOL    HW190041   9.564   1.007   6.524
28398SOL    HW290042   9.495   1.155   6.527
28399SOL     OW90043   9.432   0.643   6.149
28399SOL    HW190044   9.387   0.555   6.166
28399SOL    HW290045   9.431   0.697   6.233
28400SOL     OW90046   9.337   1.596   5.703
28400SOL    HW190047   9.318   1.500   5.724
28400SOL    HW290048   9.304   1.654   5.778
28401SOL     OW90049   9.423   0.737   7.183
28401SOL    HW190050   9.511   0.724   7.228
28401SOL    HW290051   9.410   0.834   7.161
28402SOL     OW90052   9.923   1.365   6.312
28402SOL    HW190053   9.874   1.278   6.321
28402SOL    HW290054   9.900   1.408   6.225
28403SOL     OW90055   9.507   0.976   6.850
28403SOL    HW190056   9.596   0.931   6.836
28403SOL    HW290057   9.434   0.911   6.831
28404SOL     OW90058   9.627   0.251   7.387
28404SOL    HW190059   9.698   0.322   7.393
28404SOL    HW290060   9.539   0.290   7.415
28405SOL     OW90061   9.908   0.729   5.856
28405SOL    HW190062   9.932   0.798   5.788
28405SOL    HW290063   9.830   0.762   5.910
28406SOL     OW90064   9.386   0.811   6.375
28406SOL    HW190065   9.485   0.799   6.384
28406SOL    HW290066   9.362   0.906   6.396
28407SOL     OW90067   9.440   1.821   7.157
28407SOL    HW190068   9.430   1.806   7.256
28407SOL    HW290069   9.354   1.857   7.121
28408SOL     OW90070   9.860   0.196   6.471
28408SOL    HW190071   9.855   0.191   6.571
28408SOL    HW290072   9.862   0.292   6.442
28409SOL     OW90073   9.631   0.943   5.828
28409SOL    HW190074   9.713   0.982   5.786
28409SOL    HW290075   9.604   0.861   5.779
28410SOL     OW90076   9.512   0.285   7.084
28410SOL    HW190077   9.432   0.345   7.071
28410SOL    HW290078   9.502   0.236   7.170
28411SOL     OW90079   9.774   1.743   5.909
28411SOL    HW190080   9.807   1.782   5.995
28411SOL    HW290081   9.850   1.736   5.844
28412SOL     OW90082   9.559   1.785   6.827
28412SOL    HW190083   9.616   1.720   6.877
28412SOL    HW290084   9.543   1.752   6.734
28413SOL     OW90085   9.692   0.700   6.066
28413SOL    HW190086   9.737   0.610   6.063
28413SOL    HW290087   9.598   0.689   6.099
28414SOL     OW90088  10.113   1.402   6.510
28414SOL    HW190089  10.203   1.416   6.468
28414SOL    HW290090  10.042   1.404   6.439
28415SOL     OW90091   9.849   0.064   6.098
28415SOL    HW190092   9.768   0.065   6.156
28415SOL    HW290093   9.852   0.147   6.043
28416SOL     OW90094   9.607   0.035   5.757
28416SOL    HW190095   9.656   0.119   5.736
28416SOL    HW290096   9.669  -0.030   5.802
28417SOL     OW90097  10.245   0.236   6.066
28417SOL    HW190098  10.197   0.277   5.988
28417SOL    HW290099  10.344   0.234   6.047
28418SOL     OW90100   9.769   1.152   6.327
28418SOL    HW190101   9.698   1.125   6.392
28418SOL    HW290102   9.743   1.124   6.234
28419SOL     OW90103   9.388   0.556   6.972
28419SOL    HW190104   9.480   0.555   6.931
28419SOL    HW290105   9.382   0.630   7.039
28420SOL     OW90106   9.871   0.222   6.733
28420SOL    HW190107   9.909   0.138   6.770
28420SOL    HW290108   9.783   0.241   6.777
28421SOL     OW90109   9.837   0.256   5.914
28421SOL    HW190110   9.864   0.197   5.839
28421SOL    HW290111   9.837   0.351   5.883
28422SOL     OW90112   9.720   0.813   6.837
28422SOL    HW190113   9.806   0.825   6.887
28422SOL    HW290114   9.678   0.726   6.864
28423SOL     OW90115   9.374   1.564   6.917
28423SOL    HW190116   9.328   1.646   6.883
28423SOL    HW290117   9.472   1.583   6.926
28424SOL     OW90118   9.677   1.100   6.087
28424SOL    HW190119   9.670   1.183   6.031
28424SOL    HW290120   9.681   1.020   6.027
28425SOL     OW90121   9.664   1.510   6.915
28425SOL    HW190122   9.643   1.466   6.828
28425SOL    HW290123   9.761   1.536   6.918
28426SOL     OW90124   9.712   0.751   7.184
28426SOL    HW190125   9.780   0.806   7.137
28426SOL    HW290126   9.752   0.663   7.211
28427SOL     OW90127   9.814   0.050   7.326
28427SOL    HW190128   9.772  -0.007   7.256
28427SOL    HW290129   9.748   0.119   7.358
28428SOL     OW90130   9.883   0.870   6.615
28428SOL    HW190131   9.927   0.959   6.606
28428SOL    HW290132   9.820   0.870   6.692
28429SOL     OW90133   9.617   0.213   6.817
28429SOL    HW190134   9.594   0.250   6.907
28429SOL    HW290135   9.587   0.118   6.811
28430SOL     OW90136   9.347   1.310   6.868
28430SOL    HW190137   9.400   1.261   6.936
28430SOL    HW290138   9.369   1.408   6.873
28431SOL     OW90139   9.629   0.810   6.535
28431SOL    HW190140   9.722   0.846   6.540
28431SOL    HW290141   9.623   0.725   6.587
28432SOL     OW90142   9.649   0.509   6.592
28432SOL    HW190143   9.597   0.426   6.575
28432SOL    HW290144   9.726   0.514   6.528
28433SOL     OW90145   9.318   1.326   5.786
28433SOL    HW190146   9.225   1.347   5.755
28433SOL    HW290147   9.328   1.227   5.799
28434SOL     OW90148   9.398   1.801   6.513
28434SOL    HW190149   9.356   1.715   6.486
28434SOL    HW290150   9.492   1.804   6.479
28435SOL     OW90151   9.814   1.568   6.496
28435SOL    HW190152   9.880   1.642   6.505
28435SOL    HW290153   9.858   1.489   6.454
28436SOL     OW90154   9.350   0.544   6.700
28436SOL    HW190155   9.435   0.511   6.659
28436SOL    HW290156   9.363   0.559   6.798
28437SOL     OW90157   9.499   0.520   7.308
28437SOL    HW190158   9.558   0.480   7.238
28437SOL    HW290159   9.441   0.591   7.267
28438SOL     OW90160  10.125   0.572   5.911
28438SOL    HW190161  10.132   0.483   5.865
28438SOL    HW290162  10.031   0.606   5.903
28439SOL     OW90163   9.562   1.564   7.330
28439SOL    HW190164   9.532   1.621   7.406
28439SOL    HW290165   9.555   1.467   7.356
28440SOL     OW90166   9.783   0.500   5.777
28440SOL    HW190167   9.844   0.580   5.781
28440SOL    HW290168   9.688   0.531   5.784
28441SOL     OW90169   9.469   1.137   7.052
28441SOL    HW190170   9.491   1.076   7.128
28441SOL    HW290171   9.479   1.088   6.966
28442SOL     OW90172   9.393   1.258   6.608
28442SOL    HW190173   9.388   1.257   6.708
28442SOL    HW290174   9.310   1.217   6.570
28443SOL     OW90175   9.998   1.662   7.302
28443SOL    HW190176   9.942   1.743   7.311
28443SOL    HW290177  10.050   1.666   7.216
28444SOL     OW90178   9.440   1.794   7.437
28444SOL    HW190179   9.399   1.720   7.490
28444SOL    HW290180   9.504   1.845   7.495
28445SOL     OW90181   9.573   0.326   6.306
28445SOL    HW190182   9.494   0.377   6.272
28445SOL    HW290183   9.564   0.311   6.404
28446SOL     OW90184   9.682   1.288   7.076
28446SOL    HW190185   9.669   1.381   7.042
28446SOL    HW290186   9.598   1.236   7.063
28447SOL     OW90187   9.900   1.487   6.077
28447SOL    HW190188   9.942   1.429   6.007
28447SOL    HW290189   9.856   1.566   6.033
28448SOL     OW90190   9.565   1.348   5.876
28448SOL    HW190191   9.469   1.349   5.849
28448SOL    HW290192   9.577   1.401   5.960
28449SOL     OW90193   9.982   0.203   7.075
28449SOL    HW190194  10.072   0.187   7.035
28449SOL    HW290195   9.990   0.208   7.174
28450SOL     OW90196   9.385   0.345   5.619
28450SOL    HW190197   9.293   0.317   5.590
28450SOL    HW290198   9.416   0.422   5.563
28451SOL     OW90199   9.382   0.166   5.904
28451SOL    HW190200   9.365   0.249   5.850
28451SOL    HW290201   9.472   0.129   5.882
28452SOL     OW90202   9.923   0.842   7.017
28452SOL    HW190203   9.979   0.923   7.000
28452SOL    HW290204   9.982   0.762   7.020
28453SOL     OW90205   9.700   1.741   7.146
28453SOL    HW190206   9.609   1.782   7.144
28453SOL    HW290207   9.693   1.647   7.178
28454SOL     OW90208   9.904   0.745   6.238
28454SOL    HW190209   9.954   0.830   6.219
28454SOL    HW290210   9.816   0.747   6.190
28455SOL     OW90211   9.531   1.314   7.430
28455SOL    HW190212   9.466   1.241   7.409
28455SOL    HW290213   9.535   1.328   7.528
28456SOL     OW90214   9.389   1.240   6.239
28456SOL    HW190215   9.388   1.193   6.327
28456SOL    HW290216   9.471   1.212   6.188
28457SOL     OW90217   9.982   1.391   7.210
28457SOL    HW190218   9.904   1.341   7.248
28457SOL    HW290219   9.979   1.486   7.241
28458SOL     OW90220   9.738   0.424   6.106
28458SOL    HW190221   9.768   0.352   6.044
28458SOL    HW290222   9.699   0.384   6.189
28459SOL     OW90223   9.627   0.547   6.866
28459SOL    HW190224   9.665   0.488   6.938
28459SOL    HW290225   9.667   0.521   6.778
28460SOL     OW90226   9.349   1.077   5.886
28460SOL    HW190227   9.448   1.066   5.877
28460SOL    HW290228   9.309   0.991   5.918
28461SOL     OW90229   9.540   0.628   7.561
28461SOL    HW190230   9.447   0.626   7.598
28461SOL    HW290231   9.541   0.589   7.469
28462SOL     OW90232   9.535   0.275   8.444
28462SOL    HW190233   9.570   0.258   8.536
28462SOL    HW290234   9.447   0.230   8.432
28463SOL     OW90235   9.329   0.368   8.095
28463SOL    HW190236   9.247   0.411   8.134
28463SOL    HW290237   9.301   0.295   8.032
28464SOL     OW90238   9.879   1.275   8.613
28464SOL    HW190239   9.786   1.268   8.576
28464SOL    HW290240   9.890   1.364   8.657
28465SOL     OW90241  10.160   0.798   9.271
28465SOL    HW190242  10.156   0.874   9.336
28465SOL    HW290243  10.182   0.834   9.180
28466SOL     OW90244   9.645   1.435   8.509
28466SOL    HW190245   9.567   1.404   8.456
28466SOL    HW290246   9.703   1.493   8.452
28467SOL     OW90247   9.748   0.392   8.947
28467SOL    HW190248   9.830   0.336   8.956
28467SOL    HW290249   9.667   0.334   8.951
28468SOL     OW90250   9.541   1.713   7.931
28468SOL    HW190251   9.575   1.790   7.985
28468SOL    HW290252   9.585   1.713   7.841
28469SOL     OW90253   9.540   1.434   7.986
28469SOL    HW190254   9.514   1.530   7.986
28469SOL    HW290255   9.469   1.380   8.031
28470SOL     OW90256   9.550   1.091   8.334
28470SOL    HW190257   9.564   1.007   8.386
28470SOL    HW290258   9.495   1.155   8.389
28471SOL     OW90259   9.432   0.643   8.011
28471SOL    HW190260   9.387   0.555   8.028
28471SOL    HW290261   9.431   0.697   8.095
28472SOL     OW90262   9.337   1.596   7.565
28472SOL    HW190263   9.318   1.500   7.586
28472SOL    HW290264   9.304   1.654   7.640
28473SOL     OW90265   9.423   0.737   9.045
28473SOL    HW190266   9.511   0.724   9.090
28473SOL    HW290267   9.410   0.834   9.023
28474SOL     OW90268   9.923   1.365   8.174
28474SOL    HW190269   9.874   1.278   8.183
28474SOL    HW290270   9.900   1.408   8.087
28475SOL     OW90271   9.507   0.976   8.712
28475SOL    HW190272   9.596   0.931   8.698
28475SOL    HW290273   9.434   0.911   8.693
28476SOL     OW90274   9.627   0.251   9.249
28476SOL    HW190275   9.698   0.322   9.255
28476SOL    HW290276   9.539   0.290   9.277
28477SOL     OW90277   9.908   0.729   7.718
28477SOL    HW190278   9.932   0.798   7.650
28477SOL    HW290279   9.830   0.762   7.772
28478SOL     OW90280   9.386   0.811   8.237
28478SOL    HW190281   9.485   0.799   8.246
28478SOL    HW290282   9.362   0.906   8.258
28479SOL     OW90283   9.440   1.821   9.019
28479SOL    HW190284   9.430   1.806   9.118
28479SOL    HW290285   9.354   1.857   8.983
28480SOL     OW90286  10.175   0.348   7.643
28480SOL    HW190287  10.234   0.411   7.594
28480SOL    HW290288  10.194   0.254   7.614
28481SOL     OW90289   9.860   0.196   8.333
28481SOL    HW190290   9.855   0.191   8.433
28481SOL    HW290291   9.862   0.292   8.304
28482SOL     OW90292   9.661   1.801   8.301
28482SOL    HW190293   9.711   1.715   8.307
28482SOL    HW290294   9.726   1.878   8.298
28483SOL     OW90295   9.771   1.266   9.175
28483SOL    HW190296   9.721   1.267   9.089
28483SOL    HW290297   9.708   1.248   9.251
28484SOL     OW90298   9.512   0.285   8.946
28484SOL    HW190299   9.432   0.345   8.933
28484SOL    HW290300   9.502   0.236   9.032
28485SOL     OW90301   9.774   1.743   7.771
28485SOL    HW190302   9.807   1.782   7.857
28485SOL    HW290303   9.850   1.736   7.706
28486SOL     OW90304   9.559   1.785   8.689
28486SOL    HW190305   9.616   1.720   8.739
28486SOL    HW290306   9.543   1.752   8.596
28487SOL     OW90307   9.692   0.700   7.928
28487SOL    HW190308   9.737   0.610   7.925
28487SOL    HW290309   9.598   0.689   7.961
28488SOL     OW90310   9.924   0.122   7.565
28488SOL    HW190311  10.022   0.100   7.572
28488SOL    HW290312   9.893   0.105   7.472
28489SOL     OW90313  10.113   1.402   8.372
28489SOL    HW190314  10.203   1.416   8.330
28489SOL    HW290315  10.042   1.404   8.301
28490SOL     OW90316   9.849   0.064   7.960
28490SOL    HW190317   9.768   0.065   8.018
28490SOL    HW290318   9.852   0.147   7.905
28491SOL     OW90319   9.607   0.035   7.619
28491SOL    HW190320   9.656   0.119   7.598
28491SOL    HW290321   9.669  -0.030   7.664
28492SOL     OW90322  10.245   0.236   7.928
28492SOL    HW190323  10.197   0.277   7.850
28492SOL    HW290324  10.344   0.234   7.909
28493SOL     OW90325   9.769   1.152   8.189
28493SOL    HW190326   9.698   1.125   8.254
28493SOL    HW290327   9.743   1.124   8.096
28494SOL     OW90328   9.388   0.556   8.834
28494SOL    HW190329   9.480   0.555   8.793
28494SOL    HW290330   9.382   0.630   8.901
28495SOL     OW90331   9.837   0.256   7.776
28495SOL    HW190332   9.864   0.197   7.701
28495SOL    HW290333   9.837   0.351   7.745
28496SOL     OW90334   9.720   0.813   8.699
28496SOL    HW190335   9.806   0.825   8.749
28496SOL    HW290336   9.678   0.726   8.726
28497SOL     OW90337   9.374   1.564   8.779
28497SOL    HW190338   9.328   1.646   8.745
28497SOL    HW290339   9.472   1.583   8.788
28498SOL     OW90340   9.677   1.100   7.949
28498SOL    HW190341   9.670   1.183   7.893
28498SOL    HW290342   9.681   1.020   7.889
28499SOL     OW90343   9.876   0.537   8.313
28499SOL    HW190344   9.888   0.603   8.239
28499SOL    HW290345   9.922   0.571   8.396
28500SOL     OW90346   9.664   1.510   8.777
28500SOL    HW190347   9.643   1.466   8.690
28500SOL    HW290348   9.761   1.536   8.780
28501SOL     OW90349   9.712   0.751   9.046
28501SOL    HW190350   9.780   0.806   8.999
28501SOL    HW290351   9.752   0.663   9.073
28502SOL     OW90352   9.814   0.050   9.188
28502SOL    HW190353   9.772  -0.007   9.118
28502SOL    HW290354   9.748   0.119   9.220
28503SOL     OW90355   9.883   0.870   8.477
28503SOL    HW190356   9.927   0.959   8.468
28503SOL    HW290357   9.820   0.870   8.554
28504SOL     OW90358   9.617   0.213   8.679
28504SOL    HW190359   9.594   0.250   8.769
28504SOL    HW290360   9.587   0.118   8.673
28505SOL     OW90361   9.617   0.063   8.066
28505SOL    HW190362   9.606   0.157   8.099
28505SOL    HW290363   9.612   0.000   8.143
28506SOL     OW90364   9.660   0.898   9.252
28506SOL    HW190365   9.736   0.942   9.300
28506SOL    HW290366   9.695   0.851   9.170
28507SOL     OW90367   9.629   0.810   8.397
28507SOL    HW190368   9.722   0.846   8.402
28507SOL    HW290369   9.623   0.725   8.449
28508SOL     OW90370   9.649   0.509   8.454
28508SOL    HW190371   9.597   0.426   8.437
28508SOL    HW290372   9.726   0.514   8.390
28509SOL     OW90373   9.318   1.326   7.648
28509SOL    HW190374   9.225   1.347   7.617
28509SOL    HW290375   9.328   1.227   7.661
28510SOL     OW90376   9.398   1.801   8.375
28510SOL    HW190377   9.356   1.715   8.348
28510SOL    HW290378   9.492   1.804   8.341
28511SOL     OW90379   9.814   1.568   8.358
28511SOL    HW190380   9.880   1.642   8.367
28511SOL    HW290381   9.858   1.489   8.316
28512SOL     OW90382   9.350   0.544   8.562
28512SOL    HW190383   9.435   0.511   8.521
28512SOL    HW290384   9.363   0.559   8.660
28513SOL     OW90385   9.499   0.520   9.170
28513SOL    HW190386   9.558   0.480   9.100
28513SOL    HW290387   9.441   0.591   9.129
28514SOL     OW90388  10.125   0.572   7.773
28514SOL    HW190389  10.132   0.483   7.727
28514SOL    HW290390  10.031   0.606   7.765
28515SOL     OW90391   9.562   1.564   9.192
28515SOL    HW190392   9.532   1.621   9.268
28515SOL    HW290393   9.555   1.467   9.218
28516SOL     OW90394   9.783   0.500   7.639
28516SOL    HW190395   9.844   0.580   7.643
28516SOL    HW290396   9.688   0.531   7.646
28517SOL     OW90397   9.469   1.137   8.914
28517SOL    HW190398   9.491   1.076   8.990
28517SOL    HW290399   9.479   1.088   8.828
28518SOL     OW90400   9.393   1.258   8.470
28518SOL    HW190401   9.388   1.257   8.570
28518SOL    HW290402   9.310   1.217   8.432
28519SOL     OW90403   9.998   1.662   9.164
28519SOL    HW190404   9.942   1.743   9.173
28519SOL    HW290405  10.050   1.666   9.078
28520SOL     OW90406   9.440   1.794   9.299
28520SOL    HW190407   9.399   1.720   9.352
28520SOL    HW290408   9.504   1.845   9.357
28521SOL     OW90409   9.573   0.326   8.168
28521SOL    HW190410   9.494   0.377   8.134
28521SOL    HW290411   9.564   0.311   8.266
28522SOL     OW90412   9.682   1.288   8.938
28522SOL    HW190413   9.669   1.381   8.904
28522SOL    HW290414   9.598   1.236   8.925
28523SOL     OW90415   9.900   1.487   7.939
28523SOL    HW190416   9.942   1.429   7.869
28523SOL    HW290417   9.856   1.566   7.895
28524SOL     OW90418   9.565   1.348   7.738
28524SOL    HW190419   9.469   1.349   7.711
28524SOL    HW290420   9.577   1.401   7.822
28525SOL     OW90421   9.415   1.013   9.174
28525SOL    HW190422   9.338   0.980   9.228
28525SOL    HW290423   9.500   0.983   9.216
28526SOL     OW90424   9.982   0.203   8.937
28526SOL    HW190425  10.072   0.187   8.897
28526SOL    HW290426   9.990   0.208   9.036
28527SOL     OW90427   9.385   0.345   7.481
28527SOL    HW190428   9.293   0.317   7.452
28527SOL    HW290429   9.416   0.422   7.425
28528SOL     OW90430   9.382   0.166   7.766
28528SOL    HW190431   9.365   0.249   7.712
28528SOL    HW290432   9.472   0.129   7.744
28529SOL     OW90433   9.923   0.842   8.879
28529SOL    HW190434   9.979   0.923   8.862
28529SOL    HW290435   9.982   0.762   8.882
28530SOL     OW90436   9.700   1.741   9.008
28530SOL    HW190437   9.609   1.782   9.006
28530SOL    HW290438   9.693   1.647   9.040
28531SOL     OW90439   9.904   0.745   8.100
28531SOL    HW190440   9.954   0.830   8.081
28531SOL    HW290441   9.816   0.747   8.052
28532SOL     OW90442   9.531   1.314   9.292
28532SOL    HW190443   9.466   1.241   9.271
28532SOL    HW290444   9.535   1.328   9.390
28533SOL     OW90445   9.389   1.240   8.101
28533SOL    HW190446   9.388   1.193   8.189
28533SOL    HW290447   9.471   1.212   8.050
28534SOL     OW90448   9.982   1.391   9.072
28534SOL    HW190449   9.904   1.341   9.110
28534SOL    HW290450   9.979   1.486   9.103
28535SOL     OW90451   9.738   0.424   7.968
28535SOL    HW190452   9.768   0.352   7.906
28535SOL    HW290453   9.699   0.384   8.051
28536SOL     OW90454   9.627   0.547   8.728
28536SOL    HW190455   9.665   0.488   8.800
28536SOL    HW290456   9.667   0.521   8.640
28537SOL     OW90457   9.349   1.077   7.748
28537SOL    HW190458   9.448   1.066   7.739
28537SOL    HW290459   9.309   0.991   7.780
28538SOL     OW90460   9.540   0.628   9.423
28538SOL    HW190461   9.447   0.626   9.460
28538SOL    HW290462   9.541   0.589   9.331
28539SOL     OW90463   9.541   1.713   9.793
28539SOL    HW190464   9.575   1.790   9.847
28539SOL    HW290465   9.585   1.713   9.703
28540SOL     OW90466   9.540   1.434   9.848
28540SOL    HW190467   9.514   1.530   9.848
28540SOL    HW290468   9.469   1.380   9.893
28541SOL     OW90469   9.432   0.643   9.873
28541SOL    HW190470   9.387   0.555   9.890
28541SOL    HW290471   9.431   0.697   9.957
28542SOL     OW90472   9.337   1.596   9.427
28542SOL    HW190473   9.318   1.500   9.448
28542SOL    HW290474   9.304   1.654   9.502
28543SOL     OW90475   9.908   0.729   9.580
28543SOL    HW190476   9.932   0.798   9.512
28543SOL    HW290477   9.830   0.762   9.634
28544SOL     OW90478   9.386   0.811  10.099
28544SOL    HW190479   9.485   0.799  10.108
28544SOL    HW290480   9.362   0.906  10.120
28545SOL     OW90481  10.175   0.348   9.505
28545SOL    HW190482  10.234   0.411   9.456
28545SOL    HW290483  10.194   0.254   9.476
28546SOL     OW90484   9.631   0.943   9.552
28546SOL    HW190485   9.713   0.982   9.510
28546SOL    HW290486   9.604   0.861   9.503
28547SOL     OW90487   9.774   1.743   9.633
28547SOL    HW190488   9.807   1.782   9.719
28547SOL    HW290489   9.850   1.736   9.568
28548SOL     OW90490   9.692   0.700   9.790
28548SOL    HW190491   9.737   0.610   9.787
28548SOL    HW290492   9.598   0.689   9.823
28549SOL     OW90493   9.924   0.122   9.427
28549SOL    HW190494  10.022   0.100   9.434
28549SOL    HW290495   9.893   0.105   9.334
28550SOL     OW90496   9.849   0.064   9.822
28550SOL    HW190497   9.768   0.065   9.880
28550SOL    HW290498   9.852   0.147   9.767
28551SOL     OW90499   9.607   0.035   9.481
28551SOL    HW190500   9.656   0.119   9.460
28551SOL    HW290501   9.669  -0.030   9.526
28552SOL     OW90502   9.769   1.152  10.051
28552SOL    HW190503   9.698   1.125  10.116
28552SOL    HW290504   9.743   1.124   9.958
28553SOL     OW90505   9.837   0.256   9.638
28553SOL    HW190506   9.864   0.197   9.563
28553SOL    HW290507   9.837   0.351   9.607
28554SOL     OW90508   9.677   1.100   9.811
28554SOL    HW190509   9.670   1.183   9.755
28554SOL    HW290510   9.681   1.020   9.751
28555SOL     OW90511   9.617   0.063   9.928
28555SOL    HW190512   9.606   0.157   9.961
28555SOL    HW290513   9.612   0.000  10.005
28556SOL     OW90514   9.318   1.326   9.510
28556SOL    HW190515   9.225   1.347   9.479
28556SOL    HW290516   9.328   1.227   9.523
28557SOL     OW90517  10.125   0.572   9.635
28557SOL    HW190518  10.132   0.483   9.589
28557SOL    HW290519  10.031   0.606   9.627
28558SOL     OW90520   9.783   0.500   9.501
28558SOL    HW190521   9.844   0.580   9.505
28558SOL    HW290522   9.688   0.531   9.508
28559SOL     OW90523   9.900   1.487   9.801
28559SOL    HW190524   9.942   1.429   9.731
28559SOL    HW290525   9.856   1.566   9.757
28560SOL     OW90526   9.565   1.348   9.600
28560SOL    HW190527   9.469   1.349   9.573
28560SOL    HW290528   9.577   1.401   9.684
28561SOL     OW90529   9.385   0.345   9.343
28561SOL    HW190530   9.293   0.317   9.314
28561SOL    HW290531   9.416   0.422   9.287
28562SOL     OW90532   9.382   0.166   9.628
28562SOL    HW190533   9.365   0.249   9.574
28562SOL    HW290534   9.472   0.129   9.606
28563SOL     OW90535   9.904   0.745   9.962
28563SOL    HW190536   9.954   0.830   9.943
28563SOL    HW290537   9.816   0.747   9.914
28564SOL     OW90538   9.389   1.240   9.963
28564SOL    HW190539   9.388   1.193  10.051
28564SOL    HW290540   9.471   1.212   9.912
28565SOL     OW90541   9.738   0.424   9.830
28565SOL    HW190542   9.768   0.352   9.768
28565SOL    HW290543   9.699   0.384   9.913
28566SOL     OW90544   9.349   1.077   9.610
28566SOL    HW190545   9.448   1.066   9.601
28566SOL    HW290546   9.309   0.991   9.642
28567SOL     OW90547   9.540   2.490   0.113
28567SOL    HW190548   9.447   2.488   0.150
28567SOL    HW290549   9.541   2.451   0.021
28568SOL     OW90550   9.535   2.137   0.996
28568SOL    HW190551   9.570   2.120   1.088
28568SOL    HW290552   9.447   2.092   0.984
28569SOL     OW90553   9.329   2.230   0.647
28569SOL    HW190554   9.247   2.273   0.686
28569SOL    HW290555   9.301   2.157   0.584
28570SOL     OW90556   9.879   3.137   1.165
28570SOL    HW190557   9.786   3.130   1.128
28570SOL    HW290558   9.890   3.226   1.209
28571SOL     OW90559  10.160   2.660   1.823
28571SOL    HW190560  10.156   2.736   1.888
28571SOL    HW290561  10.182   2.696   1.732
28572SOL     OW90562   9.645   3.297   1.061
28572SOL    HW190563   9.567   3.266   1.008
28572SOL    HW290564   9.703   3.355   1.004
28573SOL     OW90565   9.541   3.575   0.483
28573SOL    HW190566   9.575   3.652   0.537
28573SOL    HW290567   9.585   3.575   0.393
28574SOL     OW90568   9.540   3.296   0.538
28574SOL    HW190569   9.514   3.392   0.538
28574SOL    HW290570   9.469   3.242   0.583
28575SOL     OW90571   9.550   2.953   0.886
28575SOL    HW190572   9.564   2.869   0.938
28575SOL    HW290573   9.495   3.017   0.941
28576SOL     OW90574   9.432   2.505   0.563
28576SOL    HW190575   9.387   2.417   0.580
28576SOL    HW290576   9.431   2.559   0.647
28577SOL     OW90577   9.337   3.458   0.117
28577SOL    HW190578   9.318   3.362   0.138
28577SOL    HW290579   9.304   3.516   0.192
28578SOL     OW90580   9.423   2.599   1.597
28578SOL    HW190581   9.511   2.586   1.642
28578SOL    HW290582   9.410   2.696   1.575
28579SOL     OW90583   9.923   3.227   0.726
28579SOL    HW190584   9.874   3.140   0.735
28579SOL    HW290585   9.900   3.270   0.639
28580SOL     OW90586   9.507   2.838   1.264
28580SOL    HW190587   9.596   2.793   1.250
28580SOL    HW290588   9.434   2.773   1.245
28581SOL     OW90589   9.627   2.113   1.801
28581SOL    HW190590   9.698   2.184   1.807
28581SOL    HW290591   9.539   2.152   1.829
28582SOL     OW90592   9.908   2.591   0.270
28582SOL    HW190593   9.932   2.660   0.202
28582SOL    HW290594   9.830   2.624   0.324
28583SOL     OW90595   9.386   2.673   0.789
28583SOL    HW190596   9.485   2.661   0.798
28583SOL    HW290597   9.362   2.768   0.810
28584SOL     OW90598   9.440   3.683   1.571
28584SOL    HW190599   9.430   3.668   1.670
28584SOL    HW290600   9.354   3.719   1.535
28585SOL     OW90601   9.860   2.058   0.885
28585SOL    HW190602   9.855   2.053   0.985
28585SOL    HW290603   9.862   2.154   0.856
28586SOL     OW90604   9.661   3.663   0.853
28586SOL    HW190605   9.711   3.577   0.859
28586SOL    HW290606   9.726   3.740   0.850
28587SOL     OW90607   9.631   2.805   0.242
28587SOL    HW190608   9.713   2.844   0.200
28587SOL    HW290609   9.604   2.723   0.193
28588SOL     OW90610   9.771   3.128   1.727
28588SOL    HW190611   9.721   3.129   1.641
28588SOL    HW290612   9.708   3.110   1.803
28589SOL     OW90613   9.512   2.147   1.498
28589SOL    HW190614   9.432   2.207   1.485
28589SOL    HW290615   9.502   2.098   1.584
28590SOL     OW90616   9.774   3.605   0.323
28590SOL    HW190617   9.807   3.644   0.409
28590SOL    HW290618   9.850   3.598   0.258
28591SOL     OW90619   9.559   3.647   1.241
28591SOL    HW190620   9.616   3.582   1.291
28591SOL    HW290621   9.543   3.614   1.148
28592SOL     OW90622   9.692   2.562   0.480
28592SOL    HW190623   9.737   2.472   0.477
28592SOL    HW290624   9.598   2.551   0.513
28593SOL     OW90625  10.113   3.264   0.924
28593SOL    HW190626  10.203   3.278   0.882
28593SOL    HW290627  10.042   3.266   0.853
28594SOL     OW90628   9.769   3.014   0.741
28594SOL    HW190629   9.698   2.987   0.806
28594SOL    HW290630   9.743   2.986   0.648
28595SOL     OW90631   9.388   2.418   1.386
28595SOL    HW190632   9.480   2.417   1.345
28595SOL    HW290633   9.382   2.492   1.453
28596SOL     OW90634   9.871   2.084   1.147
28596SOL    HW190635   9.909   2.000   1.184
28596SOL    HW290636   9.783   2.103   1.191
28597SOL     OW90637   9.720   2.675   1.251
28597SOL    HW190638   9.806   2.687   1.301
28597SOL    HW290639   9.678   2.588   1.278
28598SOL     OW90640   9.374   3.426   1.331
28598SOL    HW190641   9.328   3.508   1.297
28598SOL    HW290642   9.472   3.445   1.340
28599SOL     OW90643   9.677   2.962   0.501
28599SOL    HW190644   9.670   3.045   0.445
28599SOL    HW290645   9.681   2.882   0.441
28600SOL     OW90646   9.876   2.399   0.865
28600SOL    HW190647   9.888   2.465   0.791
28600SOL    HW290648   9.922   2.433   0.948
28601SOL     OW90649   9.712   2.613   1.598
28601SOL    HW190650   9.780   2.668   1.551
28601SOL    HW290651   9.752   2.525   1.625
28602SOL     OW90652   9.814   1.912   1.740
28602SOL    HW190653   9.772   1.855   1.670
28602SOL    HW290654   9.748   1.981   1.772
28603SOL     OW90655   9.883   2.732   1.029
28603SOL    HW190656   9.927   2.821   1.020
28603SOL    HW290657   9.820   2.732   1.106
28604SOL     OW90658   9.617   2.075   1.231
28604SOL    HW190659   9.594   2.112   1.321
28604SOL    HW290660   9.587   1.980   1.225
28605SOL     OW90661   9.347   3.172   1.282
28605SOL    HW190662   9.400   3.123   1.350
28605SOL    HW290663   9.369   3.270   1.287
28606SOL     OW90664   9.660   2.760   1.804
28606SOL    HW190665   9.736   2.804   1.852
28606SOL    HW290666   9.695   2.713   1.722
28607SOL     OW90667   9.629   2.672   0.949
28607SOL    HW190668   9.722   2.708   0.954
28607SOL    HW290669   9.623   2.587   1.001
28608SOL     OW90670   9.649   2.371   1.006
28608SOL    HW190671   9.597   2.288   0.989
28608SOL    HW290672   9.726   2.376   0.942
28609SOL     OW90673   9.318   3.188   0.200
28609SOL    HW190674   9.225   3.209   0.169
28609SOL    HW290675   9.328   3.089   0.213
28610SOL     OW90676   9.398   3.663   0.927
28610SOL    HW190677   9.356   3.577   0.900
28610SOL    HW290678   9.492   3.666   0.893
28611SOL     OW90679   9.814   3.430   0.910
28611SOL    HW190680   9.880   3.504   0.919
28611SOL    HW290681   9.858   3.351   0.868
28612SOL     OW90682   9.350   2.406   1.114
28612SOL    HW190683   9.435   2.373   1.073
28612SOL    HW290684   9.363   2.421   1.212
28613SOL     OW90685   9.499   2.382   1.722
28613SOL    HW190686   9.558   2.342   1.652
28613SOL    HW290687   9.441   2.453   1.681
28614SOL     OW90688  10.125   2.434   0.325
28614SOL    HW190689  10.132   2.345   0.279
28614SOL    HW290690  10.031   2.468   0.317
28615SOL     OW90691   9.562   3.426   1.744
28615SOL    HW190692   9.532   3.483   1.820
28615SOL    HW290693   9.555   3.329   1.770
28616SOL     OW90694   9.783   2.362   0.191
28616SOL    HW190695   9.844   2.442   0.195
28616SOL    HW290696   9.688   2.393   0.198
28617SOL     OW90697   9.469   2.999   1.466
28617SOL    HW190698   9.491   2.938   1.542
28617SOL    HW290699   9.479   2.950   1.380
28618SOL     OW90700   9.393   3.120   1.022
28618SOL    HW190701   9.388   3.119   1.122
28618SOL    HW290702   9.310   3.079   0.984
28619SOL     OW90703   9.440   3.656   1.851
28619SOL    HW190704   9.399   3.582   1.904
28619SOL    HW290705   9.504   3.707   1.909
28620SOL     OW90706   9.573   2.188   0.720
28620SOL    HW190707   9.494   2.239   0.686
28620SOL    HW290708   9.564   2.173   0.818
28621SOL     OW90709   9.682   3.150   1.490
28621SOL    HW190710   9.669   3.243   1.456
28621SOL    HW290711   9.598   3.098   1.477
28622SOL     OW90712   9.900   3.349   0.491
28622SOL    HW190713   9.942   3.291   0.421
28622SOL    HW290714   9.856   3.428   0.447
28623SOL     OW90715   9.565   3.210   0.290
28623SOL    HW190716   9.469   3.211   0.263
28623SOL    HW290717   9.577   3.263   0.374
28624SOL     OW90718   9.415   2.875   1.726
28624SOL    HW190719   9.338   2.842   1.780
28624SOL    HW290720   9.500   2.845   1.768
28625SOL     OW90721   9.982   2.065   1.489
28625SOL    HW190722  10.072   2.049   1.449
28625SOL    HW290723   9.990   2.070   1.588
28626SOL     OW90724   9.385   2.207   0.033
28626SOL    HW190725   9.293   2.179   0.004
28626SOL    HW290726   9.416   2.284  -0.023
28627SOL     OW90727   9.382   2.028   0.318
28627SOL    HW190728   9.365   2.111   0.264
28627SOL    HW290729   9.472   1.991   0.296
28628SOL     OW90730   9.923   2.704   1.431
28628SOL    HW190731   9.979   2.785   1.414
28628SOL    HW290732   9.982   2.624   1.434
28629SOL     OW90733   9.904   2.607   0.652
28629SOL    HW190734   9.954   2.692   0.633
28629SOL    HW290735   9.816   2.609   0.604
28630SOL     OW90736   9.531   3.176   1.844
28630SOL    HW190737   9.466   3.103   1.823
28630SOL    HW290738   9.535   3.190   1.942
28631SOL     OW90739   9.389   3.102   0.653
28631SOL    HW190740   9.388   3.055   0.741
28631SOL    HW290741   9.471   3.074   0.602
28632SOL     OW90742   9.982   3.253   1.624
28632SOL    HW190743   9.904   3.203   1.662
28632SOL    HW290744   9.979   3.348   1.655
28633SOL     OW90745   9.738   2.286   0.520
28633SOL    HW190746   9.768   2.214   0.458
28633SOL    HW290747   9.699   2.246   0.603
28634SOL     OW90748   9.627   2.409   1.280
28634SOL    HW190749   9.665   2.350   1.352
28634SOL    HW290750   9.667   2.383   1.192
28635SOL     OW90751   9.349   2.939   0.300
28635SOL    HW190752   9.448   2.928   0.291
28635SOL    HW290753   9.309   2.853   0.332
28636SOL     OW90754   9.540   2.490   1.975
28636SOL    HW190755   9.447   2.488   2.012
28636SOL    HW290756   9.541   2.451   1.883
28637SOL     OW90757   9.535   2.137   2.858
28637SOL    HW190758   9.570   2.120   2.950
28637SOL    HW290759   9.447   2.092   2.846
28638SOL     OW90760   9.329   2.230   2.509
28638SOL    HW190761   9.247   2.273   2.548
28638SOL    HW290762   9.301   2.157   2.446
28639SOL     OW90763   9.879   3.137   3.027
28639SOL    HW190764   9.786   3.130   2.990
28639SOL    HW290765   9.890   3.226   3.071
28640SOL     OW90766  10.160   2.660   3.685
28640SOL    HW190767  10.156   2.736   3.750
28640SOL    HW290768  10.182   2.696   3.594
28641SOL     OW90769   9.645   3.297   2.923
28641SOL    HW190770   9.567   3.266   2.870
28641SOL    HW290771   9.703   3.355   2.866
28642SOL     OW90772   9.541   3.575   2.345
28642SOL    HW190773   9.575   3.652   2.399
28642SOL    HW290774   9.585   3.575   2.255
28643SOL     OW90775   9.540   3.296   2.400
28643SOL    HW190776   9.514   3.392   2.400
28643SOL    HW290777   9.469   3.242   2.445
28644SOL     OW90778   9.550   2.953   2.748
28644SOL    HW190779   9.564   2.869   2.800
28644SOL    HW290780   9.495   3.017   2.803
28645SOL     OW90781   9.432   2.505   2.425
28645SOL    HW190782   9.387   2.417   2.442
28645SOL    HW290783   9.431   2.559   2.509
28646SOL     OW90784   9.423   2.599   3.459
28646SOL    HW190785   9.511   2.586   3.504
28646SOL    HW290786   9.410   2.696   3.437
28647SOL     OW90787   9.923   3.227   2.588
28647SOL    HW190788   9.874   3.140   2.597
28647SOL    HW290789   9.900   3.270   2.501
28648SOL     OW90790  10.119   1.866   2.364
28648SOL    HW190791  10.159   1.957   2.355
28648SOL    HW290792  10.019   1.874   2.370
28649SOL     OW90793   9.507   2.838   3.126
28649SOL    HW190794   9.596   2.793   3.112
28649SOL    HW290795   9.434   2.773   3.107
28650SOL     OW90796   9.627   2.113   3.663
28650SOL    HW190797   9.698   2.184   3.669
28650SOL    HW290798   9.539   2.152   3.691
28651SOL     OW90799   9.908   2.591   2.132
28651SOL    HW190800   9.932   2.660   2.064
28651SOL    HW290801   9.830   2.624   2.186
28652SOL     OW90802   9.386   2.673   2.651
28652SOL    HW190803   9.485   2.661   2.660
28652SOL    HW290804   9.362   2.768   2.672
28653SOL     OW90805   9.440   3.683   3.433
28653SOL    HW190806   9.430   3.668   3.532
28653SOL    HW290807   9.354   3.719   3.397
28654SOL     OW90808  10.175   2.210   2.057
28654SOL    HW190809  10.234   2.273   2.008
28654SOL    HW290810  10.194   2.116   2.028
28655SOL     OW90811   9.860   2.058   2.747
28655SOL    HW190812   9.855   2.053   2.847
28655SOL    HW290813   9.862   2.154   2.718
28656SOL     OW90814   9.661   3.663   2.715
28656SOL    HW190815   9.711   3.577   2.721
28656SOL    HW290816   9.726   3.740   2.712
28657SOL     OW90817   9.631   2.805   2.104
28657SOL    HW190818   9.713   2.844   2.062
28657SOL    HW290819   9.604   2.723   2.055
28658SOL     OW90820   9.771   3.128   3.589
28658SOL    HW190821   9.721   3.129   3.503
28658SOL    HW290822   9.708   3.110   3.665
28659SOL     OW90823   9.512   2.147   3.360
28659SOL    HW190824   9.432   2.207   3.347
28659SOL    HW290825   9.502   2.098   3.446
28660SOL     OW90826   9.774   3.605   2.185
28660SOL    HW190827   9.807   3.644   2.271
28660SOL    HW290828   9.850   3.598   2.120
28661SOL     OW90829   9.559   3.647   3.103
28661SOL    HW190830   9.616   3.582   3.153
28661SOL    HW290831   9.543   3.614   3.010
28662SOL     OW90832   9.692   2.562   2.342
28662SOL    HW190833   9.737   2.472   2.339
28662SOL    HW290834   9.598   2.551   2.375
28663SOL     OW90835   9.924   1.984   1.979
28663SOL    HW190836  10.022   1.962   1.986
28663SOL    HW290837   9.893   1.967   1.886
28664SOL     OW90838  10.113   3.264   2.786
28664SOL    HW190839  10.203   3.278   2.744
28664SOL    HW290840  10.042   3.266   2.715
28665SOL     OW90841   9.849   1.926   2.374
28665SOL    HW190842   9.768   1.927   2.432
28665SOL    HW290843   9.852   2.009   2.319
28666SOL     OW90844   9.607   1.897   2.033
28666SOL    HW190845   9.656   1.981   2.012
28666SOL    HW290846   9.669   1.832   2.078
28667SOL     OW90847  10.245   2.098   2.342
28667SOL    HW190848  10.197   2.139   2.264
28667SOL    HW290849  10.344   2.096   2.323
28668SOL     OW90850   9.769   3.014   2.603
28668SOL    HW190851   9.698   2.987   2.668
28668SOL    HW290852   9.743   2.986   2.510
28669SOL     OW90853   9.388   2.418   3.248
28669SOL    HW190854   9.480   2.417   3.207
28669SOL    HW290855   9.382   2.492   3.315
28670SOL     OW90856   9.871   2.084   3.009
28670SOL    HW190857   9.909   2.000   3.046
28670SOL    HW290858   9.783   2.103   3.053
28671SOL     OW90859   9.837   2.118   2.190
28671SOL    HW190860   9.864   2.059   2.115
28671SOL    HW290861   9.837   2.213   2.159
28672SOL     OW90862   9.720   2.675   3.113
28672SOL    HW190863   9.806   2.687   3.163
28672SOL    HW290864   9.678   2.588   3.140
28673SOL     OW90865   9.374   3.426   3.193
28673SOL    HW190866   9.328   3.508   3.159
28673SOL    HW290867   9.472   3.445   3.202
28674SOL     OW90868   9.677   2.962   2.363
28674SOL    HW190869   9.670   3.045   2.307
28674SOL    HW290870   9.681   2.882   2.303
28675SOL     OW90871   9.876   2.399   2.727
28675SOL    HW190872   9.888   2.465   2.653
28675SOL    HW290873   9.922   2.433   2.810
28676SOL     OW90874   9.664   3.372   3.191
28676SOL    HW190875   9.643   3.328   3.104
28676SOL    HW290876   9.761   3.398   3.194
28677SOL     OW90877   9.712   2.613   3.460
28677SOL    HW190878   9.780   2.668   3.413
28677SOL    HW290879   9.752   2.525   3.487
28678SOL     OW90880   9.814   1.912   3.602
28678SOL    HW190881   9.772   1.855   3.532
28678SOL    HW290882   9.748   1.981   3.634
28679SOL     OW90883   9.883   2.732   2.891
28679SOL    HW190884   9.927   2.821   2.882
28679SOL    HW290885   9.820   2.732   2.968
28680SOL     OW90886   9.617   2.075   3.093
28680SOL    HW190887   9.594   2.112   3.183
28680SOL    HW290888   9.587   1.980   3.087
28681SOL     OW90889   9.347   3.172   3.144
28681SOL    HW190890   9.400   3.123   3.212
28681SOL    HW290891   9.369   3.270   3.149
28682SOL     OW90892   9.617   1.925   2.480
28682SOL    HW190893   9.606   2.019   2.513
28682SOL    HW290894   9.612   1.862   2.557
28683SOL     OW90895   9.660   2.760   3.666
28683SOL    HW190896   9.736   2.804   3.714
28683SOL    HW290897   9.695   2.713   3.584
28684SOL     OW90898   9.629   2.672   2.811
28684SOL    HW190899   9.722   2.708   2.816
28684SOL    HW290900   9.623   2.587   2.863
28685SOL     OW90901   9.649   2.371   2.868
28685SOL    HW190902   9.597   2.288   2.851
28685SOL    HW290903   9.726   2.376   2.804
28686SOL     OW90904   9.318   3.188   2.062
28686SOL    HW190905   9.225   3.209   2.031
28686SOL    HW290906   9.328   3.089   2.075
28687SOL     OW90907   9.398   3.663   2.789
28687SOL    HW190908   9.356   3.577   2.762
28687SOL    HW290909   9.492   3.666   2.755
28688SOL     OW90910   9.814   3.430   2.772
28688SOL    HW190911   9.880   3.504   2.781
28688SOL    HW290912   9.858   3.351   2.730
28689SOL     OW90913   9.350   2.406   2.976
28689SOL    HW190914   9.435   2.373   2.935
28689SOL    HW290915   9.363   2.421   3.074
28690SOL     OW90916   9.499   2.382   3.584
28690SOL    HW190917   9.558   2.342   3.514
28690SOL    HW290918   9.441   2.453   3.543
28691SOL     OW90919  10.125   2.434   2.187
28691SOL    HW190920  10.132   2.345   2.141
28691SOL    HW290921  10.031   2.468   2.179
28692SOL     OW90922   9.783   2.362   2.053
28692SOL    HW190923   9.844   2.442   2.057
28692SOL    HW290924   9.688   2.393   2.060
28693SOL     OW90925   9.393   3.120   2.884
28693SOL    HW190926   9.388   3.119   2.984
28693SOL    HW290927   9.310   3.079   2.846
28694SOL     OW90928   9.998   3.524   3.578
28694SOL    HW190929   9.942   3.605   3.587
28694SOL    HW290930  10.050   3.528   3.492
28695SOL     OW90931   9.440   3.656   3.713
28695SOL    HW190932   9.399   3.582   3.766
28695SOL    HW290933   9.504   3.707   3.771
28696SOL     OW90934   9.573   2.188   2.582
28696SOL    HW190935   9.494   2.239   2.548
28696SOL    HW290936   9.564   2.173   2.680
28697SOL     OW90937   9.682   3.150   3.352
28697SOL    HW190938   9.669   3.243   3.318
28697SOL    HW290939   9.598   3.098   3.339
28698SOL     OW90940   9.900   3.349   2.353
28698SOL    HW190941   9.942   3.291   2.283
28698SOL    HW290942   9.856   3.428   2.309
28699SOL     OW90943   9.565   3.210   2.152
28699SOL    HW190944   9.469   3.211   2.125
28699SOL    HW290945   9.577   3.263   2.236
28700SOL     OW90946   9.415   2.875   3.588
28700SOL    HW190947   9.338   2.842   3.642
28700SOL    HW290948   9.500   2.845   3.630
28701SOL     OW90949   9.385   2.207   1.895
28701SOL    HW190950   9.293   2.179   1.866
28701SOL    HW290951   9.416   2.284   1.839
28702SOL     OW90952   9.382   2.028   2.180
28702SOL    HW190953   9.365   2.111   2.126
28702SOL    HW290954   9.472   1.991   2.158
28703SOL     OW90955   9.700   3.603   3.422
28703SOL    HW190956   9.609   3.644   3.420
28703SOL    HW290957   9.693   3.509   3.454
28704SOL     OW90958   9.904   2.607   2.514
28704SOL    HW190959   9.954   2.692   2.495
28704SOL    HW290960   9.816   2.609   2.466
28705SOL     OW90961   9.389   3.102   2.515
28705SOL    HW190962   9.388   3.055   2.603
28705SOL    HW290963   9.471   3.074   2.464
28706SOL     OW90964   9.982   3.253   3.486
28706SOL    HW190965   9.904   3.203   3.524
28706SOL    HW290966   9.979   3.348   3.517
28707SOL     OW90967   9.738   2.286   2.382
28707SOL    HW190968   9.768   2.214   2.320
28707SOL    HW290969   9.699   2.246   2.465
28708SOL     OW90970   9.627   2.409   3.142
28708SOL    HW190971   9.665   2.350   3.214
28708SOL    HW290972   9.667   2.383   3.054
28709SOL     OW90973   9.349   2.939   2.162
28709SOL    HW190974   9.448   2.928   2.153
28709SOL    HW290975   9.309   2.853   2.194
28710SOL     OW90976   9.540   2.490   3.837
28710SOL    HW190977   9.447   2.488   3.874
28710SOL    HW290978   9.541   2.451   3.745
28711SOL     OW90979   9.535   2.137   4.720
28711SOL    HW190980   9.570   2.120   4.812
28711SOL    HW290981   9.447   2.092   4.708
28712SOL     OW90982   9.329   2.230   4.371
28712SOL    HW190983   9.247   2.273   4.410
28712SOL    HW290984   9.301   2.157   4.308
28713SOL     OW90985  10.160   2.660   5.547
28713SOL    HW190986  10.156   2.736   5.612
28713SOL    HW290987  10.182   2.696   5.456
28714SOL     OW90988   9.645   3.297   4.785
28714SOL    HW190989   9.567   3.266   4.732
28714SOL    HW290990   9.703   3.355   4.728
28715SOL     OW90991   9.748   2.254   5.223
28715SOL    HW190992   9.830   2.198   5.232
28715SOL    HW290993   9.667   2.196   5.227
28716SOL     OW90994   9.541   3.575   4.207
28716SOL    HW190995   9.575   3.652   4.261
28716SOL    HW290996   9.585   3.575   4.117
28717SOL     OW90997   9.540   3.296   4.262
28717SOL    HW190998   9.514   3.392   4.262
28717SOL    HW290999   9.469   3.242   4.307
28718SOL     OW91000   9.432   2.505   4.287
28718SOL    HW191001   9.387   2.417   4.304
28718SOL    HW291002   9.431   2.559   4.371
28719SOL     OW91003   9.423   2.599   5.321
28719SOL    HW191004   9.511   2.586   5.366
28719SOL    HW291005   9.410   2.696   5.299
28720SOL     OW91006   9.507   2.838   4.988
28720SOL    HW191007   9.596   2.793   4.974
28720SOL    HW291008   9.434   2.773   4.969
28721SOL     OW91009   9.627   2.113   5.525
28721SOL    HW191010   9.698   2.184   5.531
28721SOL    HW291011   9.539   2.152   5.553
28722SOL     OW91012   9.908   2.591   3.994
28722SOL    HW191013   9.932   2.660   3.926
28722SOL    HW291014   9.830   2.624   4.048
28723SOL     OW91015   9.386   2.673   4.513
28723SOL    HW191016   9.485   2.661   4.522
28723SOL    HW291017   9.362   2.768   4.534
28724SOL     OW91018   9.440   3.683   5.295
28724SOL    HW191019   9.430   3.668   5.394
28724SOL    HW291020   9.354   3.719   5.259
28725SOL     OW91021  10.175   2.210   3.919
28725SOL    HW191022  10.234   2.273   3.870
28725SOL    HW291023  10.194   2.116   3.890
28726SOL     OW91024   9.661   3.663   4.577
28726SOL    HW191025   9.711   3.577   4.583
28726SOL    HW291026   9.726   3.740   4.574
28727SOL     OW91027   9.631   2.805   3.966
28727SOL    HW191028   9.713   2.844   3.924
28727SOL    HW291029   9.604   2.723   3.917
28728SOL     OW91030   9.512   2.147   5.222
28728SOL    HW191031   9.432   2.207   5.209
28728SOL    HW291032   9.502   2.098   5.308
28729SOL     OW91033   9.774   3.605   4.047
28729SOL    HW191034   9.807   3.644   4.133
28729SOL    HW291035   9.850   3.598   3.982
28730SOL     OW91036   9.559   3.647   4.965
28730SOL    HW191037   9.616   3.582   5.015
28730SOL    HW291038   9.543   3.614   4.872
28731SOL     OW91039   9.692   2.562   4.204
28731SOL    HW191040   9.737   2.472   4.201
28731SOL    HW291041   9.598   2.551   4.237
28732SOL     OW91042   9.924   1.984   3.841
28732SOL    HW191043  10.022   1.962   3.848
28732SOL    HW291044   9.893   1.967   3.748
28733SOL     OW91045  10.113   3.264   4.648
28733SOL    HW191046  10.203   3.278   4.606
28733SOL    HW291047  10.042   3.266   4.577
28734SOL     OW91048   9.607   1.897   3.895
28734SOL    HW191049   9.656   1.981   3.874
28734SOL    HW291050   9.669   1.832   3.940
28735SOL     OW91051  10.245   2.098   4.204
28735SOL    HW191052  10.197   2.139   4.126
28735SOL    HW291053  10.344   2.096   4.185
28736SOL     OW91054   9.388   2.418   5.110
28736SOL    HW191055   9.480   2.417   5.069
28736SOL    HW291056   9.382   2.492   5.177
28737SOL     OW91057   9.871   2.084   4.871
28737SOL    HW191058   9.909   2.000   4.908
28737SOL    HW291059   9.783   2.103   4.915
28738SOL     OW91060   9.837   2.118   4.052
28738SOL    HW191061   9.864   2.059   3.977
28738SOL    HW291062   9.837   2.213   4.021
28739SOL     OW91063   9.720   2.675   4.975
28739SOL    HW191064   9.806   2.687   5.025
28739SOL    HW291065   9.678   2.588   5.002
28740SOL     OW91066   9.374   3.426   5.055
28740SOL    HW191067   9.328   3.508   5.021
28740SOL    HW291068   9.472   3.445   5.064
28741SOL     OW91069   9.876   2.399   4.589
28741SOL    HW191070   9.888   2.465   4.515
28741SOL    HW291071   9.922   2.433   4.672
28742SOL     OW91072   9.664   3.372   5.053
28742SOL    HW191073   9.643   3.328   4.966
28742SOL    HW291074   9.761   3.398   5.056
28743SOL     OW91075   9.712   2.613   5.322
28743SOL    HW191076   9.780   2.668   5.275
28743SOL    HW291077   9.752   2.525   5.349
28744SOL     OW91078   9.814   1.912   5.464
28744SOL    HW191079   9.772   1.855   5.394
28744SOL    HW291080   9.748   1.981   5.496
28745SOL     OW91081   9.883   2.732   4.753
28745SOL    HW191082   9.927   2.821   4.744
28745SOL    HW291083   9.820   2.732   4.830
28746SOL     OW91084   9.617   2.075   4.955
28746SOL    HW191085   9.594   2.112   5.045
28746SOL    HW291086   9.587   1.980   4.949
28747SOL     OW91087   9.347   3.172   5.006
28747SOL    HW191088   9.400   3.123   5.074
28747SOL    HW291089   9.369   3.270   5.011
28748SOL     OW91090   9.617   1.925   4.342
28748SOL    HW191091   9.606   2.019   4.375
28748SOL    HW291092   9.612   1.862   4.419
28749SOL     OW91093   9.629   2.672   4.673
28749SOL    HW191094   9.722   2.708   4.678
28749SOL    HW291095   9.623   2.587   4.725
28750SOL     OW91096   9.649   2.371   4.730
28750SOL    HW191097   9.597   2.288   4.713
28750SOL    HW291098   9.726   2.376   4.666
28751SOL     OW91099   9.318   3.188   3.924
28751SOL    HW191100   9.225   3.209   3.893
28751SOL    HW291101   9.328   3.089   3.937
28752SOL     OW91102   9.398   3.663   4.651
28752SOL    HW191103   9.356   3.577   4.624
28752SOL    HW291104   9.492   3.666   4.617
28753SOL     OW91105   9.814   3.430   4.634
28753SOL    HW191106   9.880   3.504   4.643
28753SOL    HW291107   9.858   3.351   4.592
28754SOL     OW91108   9.350   2.406   4.838
28754SOL    HW191109   9.435   2.373   4.797
28754SOL    HW291110   9.363   2.421   4.936
28755SOL     OW91111   9.499   2.382   5.446
28755SOL    HW191112   9.558   2.342   5.376
28755SOL    HW291113   9.441   2.453   5.405
28756SOL     OW91114  10.125   2.434   4.049
28756SOL    HW191115  10.132   2.345   4.003
28756SOL    HW291116  10.031   2.468   4.041
28757SOL     OW91117   9.562   3.426   5.468
28757SOL    HW191118   9.532   3.483   5.544
28757SOL    HW291119   9.555   3.329   5.494
28758SOL     OW91120   9.783   2.362   3.915
28758SOL    HW191121   9.844   2.442   3.919
28758SOL    HW291122   9.688   2.393   3.922
28759SOL     OW91123   9.469   2.999   5.190
28759SOL    HW191124   9.491   2.938   5.266
28759SOL    HW291125   9.479   2.950   5.104
28760SOL     OW91126   9.393   3.120   4.746
28760SOL    HW191127   9.388   3.119   4.846
28760SOL    HW291128   9.310   3.079   4.708
28761SOL     OW91129   9.998   3.524   5.440
28761SOL    HW191130   9.942   3.605   5.449
28761SOL    HW291131  10.050   3.528   5.354
28762SOL     OW91132   9.440   3.656   5.575
28762SOL    HW191133   9.399   3.582   5.628
28762SOL    HW291134   9.504   3.707   5.633
28763SOL     OW91135   9.573   2.188   4.444
28763SOL    HW191136   9.494   2.239   4.410
28763SOL    HW291137   9.564   2.173   4.542
28764SOL     OW91138   9.682   3.150   5.214
28764SOL    HW191139   9.669   3.243   5.180
28764SOL    HW291140   9.598   3.098   5.201
28765SOL     OW91141   9.900   3.349   4.215
28765SOL    HW191142   9.942   3.291   4.145
28765SOL    HW291143   9.856   3.428   4.171
28766SOL     OW91144   9.565   3.210   4.014
28766SOL    HW191145   9.469   3.211   3.987
28766SOL    HW291146   9.577   3.263   4.098
28767SOL     OW91147   9.415   2.875   5.450
28767SOL    HW191148   9.338   2.842   5.504
28767SOL    HW291149   9.500   2.845   5.492
28768SOL     OW91150   9.982   2.065   5.213
28768SOL    HW191151  10.072   2.049   5.173
28768SOL    HW291152   9.990   2.070   5.312
28769SOL     OW91153   9.385   2.207   3.757
28769SOL    HW191154   9.293   2.179   3.728
28769SOL    HW291155   9.416   2.284   3.701
28770SOL     OW91156   9.382   2.028   4.042
28770SOL    HW191157   9.365   2.111   3.988
28770SOL    HW291158   9.472   1.991   4.020
28771SOL     OW91159   9.923   2.704   5.155
28771SOL    HW191160   9.979   2.785   5.138
28771SOL    HW291161   9.982   2.624   5.158
28772SOL     OW91162   9.700   3.603   5.284
28772SOL    HW191163   9.609   3.644   5.282
28772SOL    HW291164   9.693   3.509   5.316
28773SOL     OW91165   9.904   2.607   4.376
28773SOL    HW191166   9.954   2.692   4.357
28773SOL    HW291167   9.816   2.609   4.328
28774SOL     OW91168   9.531   3.176   5.568
28774SOL    HW191169   9.466   3.103   5.547
28774SOL    HW291170   9.535   3.190   5.666
28775SOL     OW91171   9.389   3.102   4.377
28775SOL    HW191172   9.388   3.055   4.465
28775SOL    HW291173   9.471   3.074   4.326
28776SOL     OW91174   9.738   2.286   4.244
28776SOL    HW191175   9.768   2.214   4.182
28776SOL    HW291176   9.699   2.246   4.327
28777SOL     OW91177   9.627   2.409   5.004
28777SOL    HW191178   9.665   2.350   5.076
28777SOL    HW291179   9.667   2.383   4.916
28778SOL     OW91180   9.349   2.939   4.024
28778SOL    HW191181   9.448   2.928   4.015
28778SOL    HW291182   9.309   2.853   4.056
28779SOL     OW91183   9.540   2.490   5.699
28779SOL    HW191184   9.447   2.488   5.736
28779SOL    HW291185   9.541   2.451   5.607
28780SOL     OW91186   9.535   2.137   6.582
28780SOL    HW191187   9.570   2.120   6.674
28780SOL    HW291188   9.447   2.092   6.570
28781SOL     OW91189   9.329   2.230   6.233
28781SOL    HW191190   9.247   2.273   6.272
28781SOL    HW291191   9.301   2.157   6.170
28782SOL     OW91192   9.879   3.137   6.751
28782SOL    HW191193   9.786   3.130   6.714
28782SOL    HW291194   9.890   3.226   6.795
28783SOL     OW91195  10.160   2.660   7.409
28783SOL    HW191196  10.156   2.736   7.474
28783SOL    HW291197  10.182   2.696   7.318
28784SOL     OW91198   9.645   3.297   6.647
28784SOL    HW191199   9.567   3.266   6.594
28784SOL    HW291200   9.703   3.355   6.590
28785SOL     OW91201   9.748   2.254   7.085
28785SOL    HW191202   9.830   2.198   7.094
28785SOL    HW291203   9.667   2.196   7.089
28786SOL     OW91204   9.541   3.575   6.069
28786SOL    HW191205   9.575   3.652   6.123
28786SOL    HW291206   9.585   3.575   5.979
28787SOL     OW91207   9.540   3.296   6.124
28787SOL    HW191208   9.514   3.392   6.124
28787SOL    HW291209   9.469   3.242   6.169
28788SOL     OW91210   9.550   2.953   6.472
28788SOL    HW191211   9.564   2.869   6.524
28788SOL    HW291212   9.495   3.017   6.527
28789SOL     OW91213   9.432   2.505   6.149
28789SOL    HW191214   9.387   2.417   6.166
28789SOL    HW291215   9.431   2.559   6.233
28790SOL     OW91216   9.337   3.458   5.703
28790SOL    HW191217   9.318   3.362   5.724
28790SOL    HW291218   9.304   3.516   5.778
28791SOL     OW91219   9.423   2.599   7.183
28791SOL    HW191220   9.511   2.586   7.228
28791SOL    HW291221   9.410   2.696   7.161
28792SOL     OW91222   9.923   3.227   6.312
28792SOL    HW191223   9.874   3.140   6.321
28792SOL    HW291224   9.900   3.270   6.225
28793SOL     OW91225  10.119   1.866   6.088
28793SOL    HW191226  10.159   1.957   6.079
28793SOL    HW291227  10.019   1.874   6.094
28794SOL     OW91228   9.507   2.838   6.850
28794SOL    HW191229   9.596   2.793   6.836
28794SOL    HW291230   9.434   2.773   6.831
28795SOL     OW91231   9.627   2.113   7.387
28795SOL    HW191232   9.698   2.184   7.393
28795SOL    HW291233   9.539   2.152   7.415
28796SOL     OW91234   9.908   2.591   5.856
28796SOL    HW191235   9.932   2.660   5.788
28796SOL    HW291236   9.830   2.624   5.910
28797SOL     OW91237   9.386   2.673   6.375
28797SOL    HW191238   9.485   2.661   6.384
28797SOL    HW291239   9.362   2.768   6.396
28798SOL     OW91240   9.440   3.683   7.157
28798SOL    HW191241   9.430   3.668   7.256
28798SOL    HW291242   9.354   3.719   7.121
28799SOL     OW91243  10.175   2.210   5.781
28799SOL    HW191244  10.234   2.273   5.732
28799SOL    HW291245  10.194   2.116   5.752
28800SOL     OW91246   9.860   2.058   6.471
28800SOL    HW191247   9.855   2.053   6.571
28800SOL    HW291248   9.862   2.154   6.442
28801SOL     OW91249   9.661   3.663   6.439
28801SOL    HW191250   9.711   3.577   6.445
28801SOL    HW291251   9.726   3.740   6.436
28802SOL     OW91252   9.631   2.805   5.828
28802SOL    HW191253   9.713   2.844   5.786
28802SOL    HW291254   9.604   2.723   5.779
28803SOL     OW91255   9.771   3.128   7.313
28803SOL    HW191256   9.721   3.129   7.227
28803SOL    HW291257   9.708   3.110   7.389
28804SOL     OW91258   9.512   2.147   7.084
28804SOL    HW191259   9.432   2.207   7.071
28804SOL    HW291260   9.502   2.098   7.170
28805SOL     OW91261   9.774   3.605   5.909
28805SOL    HW191262   9.807   3.644   5.995
28805SOL    HW291263   9.850   3.598   5.844
28806SOL     OW91264   9.559   3.647   6.827
28806SOL    HW191265   9.616   3.582   6.877
28806SOL    HW291266   9.543   3.614   6.734
28807SOL     OW91267   9.692   2.562   6.066
28807SOL    HW191268   9.737   2.472   6.063
28807SOL    HW291269   9.598   2.551   6.099
28808SOL     OW91270   9.924   1.984   5.703
28808SOL    HW191271  10.022   1.962   5.710
28808SOL    HW291272   9.893   1.967   5.610
28809SOL     OW91273  10.113   3.264   6.510
28809SOL    HW191274  10.203   3.278   6.468
28809SOL    HW291275  10.042   3.266   6.439
28810SOL     OW91276   9.849   1.926   6.098
28810SOL    HW191277   9.768   1.927   6.156
28810SOL    HW291278   9.852   2.009   6.043
28811SOL     OW91279   9.607   1.897   5.757
28811SOL    HW191280   9.656   1.981   5.736
28811SOL    HW291281   9.669   1.832   5.802
28812SOL     OW91282  10.245   2.098   6.066
28812SOL    HW191283  10.197   2.139   5.988
28812SOL    HW291284  10.344   2.096   6.047
28813SOL     OW91285   9.769   3.014   6.327
28813SOL    HW191286   9.698   2.987   6.392
28813SOL    HW291287   9.743   2.986   6.234
28814SOL     OW91288   9.388   2.418   6.972
28814SOL    HW191289   9.480   2.417   6.931
28814SOL    HW291290   9.382   2.492   7.039
28815SOL     OW91291   9.871   2.084   6.733
28815SOL    HW191292   9.909   2.000   6.770
28815SOL    HW291293   9.783   2.103   6.777
28816SOL     OW91294   9.837   2.118   5.914
28816SOL    HW191295   9.864   2.059   5.839
28816SOL    HW291296   9.837   2.213   5.883
28817SOL     OW91297   9.374   3.426   6.917
28817SOL    HW191298   9.328   3.508   6.883
28817SOL    HW291299   9.472   3.445   6.926
28818SOL     OW91300   9.677   2.962   6.087
28818SOL    HW191301   9.670   3.045   6.031
28818SOL    HW291302   9.681   2.882   6.027
28819SOL     OW91303   9.664   3.372   6.915
28819SOL    HW191304   9.643   3.328   6.828
28819SOL    HW291305   9.761   3.398   6.918
28820SOL     OW91306   9.712   2.613   7.184
28820SOL    HW191307   9.780   2.668   7.137
28820SOL    HW291308   9.752   2.525   7.211
28821SOL     OW91309   9.814   1.912   7.326
28821SOL    HW191310   9.772   1.855   7.256
28821SOL    HW291311   9.748   1.981   7.358
28822SOL     OW91312   9.617   2.075   6.817
28822SOL    HW191313   9.594   2.112   6.907
28822SOL    HW291314   9.587   1.980   6.811
28823SOL     OW91315   9.347   3.172   6.868
28823SOL    HW191316   9.400   3.123   6.936
28823SOL    HW291317   9.369   3.270   6.873
28824SOL     OW91318   9.617   1.925   6.204
28824SOL    HW191319   9.606   2.019   6.237
28824SOL    HW291320   9.612   1.862   6.281
28825SOL     OW91321   9.660   2.760   7.390
28825SOL    HW191322   9.736   2.804   7.438
28825SOL    HW291323   9.695   2.713   7.308
28826SOL     OW91324   9.629   2.672   6.535
28826SOL    HW191325   9.722   2.708   6.540
28826SOL    HW291326   9.623   2.587   6.587
28827SOL     OW91327   9.318   3.188   5.786
28827SOL    HW191328   9.225   3.209   5.755
28827SOL    HW291329   9.328   3.089   5.799
28828SOL     OW91330   9.398   3.663   6.513
28828SOL    HW191331   9.356   3.577   6.486
28828SOL    HW291332   9.492   3.666   6.479
28829SOL     OW91333   9.814   3.430   6.496
28829SOL    HW191334   9.880   3.504   6.505
28829SOL    HW291335   9.858   3.351   6.454
28830SOL     OW91336   9.350   2.406   6.700
28830SOL    HW191337   9.435   2.373   6.659
28830SOL    HW291338   9.363   2.421   6.798
28831SOL     OW91339   9.499   2.382   7.308
28831SOL    HW191340   9.558   2.342   7.238
28831SOL    HW291341   9.441   2.453   7.267
28832SOL     OW91342  10.125   2.434   5.911
28832SOL    HW191343  10.132   2.345   5.865
28832SOL    HW291344  10.031   2.468   5.903
28833SOL     OW91345   9.562   3.426   7.330
28833SOL    HW191346   9.532   3.483   7.406
28833SOL    HW291347   9.555   3.329   7.356
28834SOL     OW91348   9.783   2.362   5.777
28834SOL    HW191349   9.844   2.442   5.781
28834SOL    HW291350   9.688   2.393   5.784
28835SOL     OW91351   9.469   2.999   7.052
28835SOL    HW191352   9.491   2.938   7.128
28835SOL    HW291353   9.479   2.950   6.966
28836SOL     OW91354   9.393   3.120   6.608
28836SOL    HW191355   9.388   3.119   6.708
28836SOL    HW291356   9.310   3.079   6.570
28837SOL     OW91357   9.998   3.524   7.302
28837SOL    HW191358   9.942   3.605   7.311
28837SOL    HW291359  10.050   3.528   7.216
28838SOL     OW91360   9.440   3.656   7.437
28838SOL    HW191361   9.399   3.582   7.490
28838SOL    HW291362   9.504   3.707   7.495
28839SOL     OW91363   9.573   2.188   6.306
28839SOL    HW191364   9.494   2.239   6.272
28839SOL    HW291365   9.564   2.173   6.404
28840SOL     OW91366   9.682   3.150   7.076
28840SOL    HW191367   9.669   3.243   7.042
28840SOL    HW291368   9.598   3.098   7.063
28841SOL     OW91369   9.900   3.349   6.077
28841SOL    HW191370   9.942   3.291   6.007
28841SOL    HW291371   9.856   3.428   6.033
28842SOL     OW91372   9.565   3.210   5.876
28842SOL    HW191373   9.469   3.211   5.849
28842SOL    HW291374   9.577   3.263   5.960
28843SOL     OW91375   9.415   2.875   7.312
28843SOL    HW191376   9.338   2.842   7.366
28843SOL    HW291377   9.500   2.845   7.354
28844SOL     OW91378   9.982   2.065   7.075
28844SOL    HW191379  10.072   2.049   7.035
28844SOL    HW291380   9.990   2.070   7.174
28845SOL     OW91381   9.923   2.704   7.017
28845SOL    HW191382   9.979   2.785   7.000
28845SOL    HW291383   9.982   2.624   7.020
28846SOL     OW91384   9.700   3.603   7.146
28846SOL    HW191385   9.609   3.644   7.144
28846SOL    HW291386   9.693   3.509   7.178
28847SOL     OW91387   9.904   2.607   6.238
28847SOL    HW191388   9.954   2.692   6.219
28847SOL    HW291389   9.816   2.609   6.190
28848SOL     OW91390   9.531   3.176   7.430
28848SOL    HW191391   9.466   3.103   7.409
28848SOL    HW291392   9.535   3.190   7.528
28849SOL     OW91393   9.389   3.102   6.239
28849SOL    HW191394   9.388   3.055   6.327
28849SOL    HW291395   9.471   3.074   6.188
28850SOL     OW91396   9.982   3.253   7.210
28850SOL    HW191397   9.904   3.203   7.248
28850SOL    HW291398   9.979   3.348   7.241
28851SOL     OW91399   9.738   2.286   6.106
28851SOL    HW191400   9.768   2.214   6.044
28851SOL    HW291401   9.699   2.246   6.189
28852SOL     OW91402   9.627   2.409   6.866
28852SOL    HW191403   9.665   2.350   6.938
28852SOL    HW291404   9.667   2.383   6.778
28853SOL     OW91405   9.349   2.939   5.886
28853SOL    HW191406   9.448   2.928   5.877
28853SOL    HW291407   9.309   2.853   5.918
28854SOL     OW91408   9.540   2.490   7.561
28854SOL    HW191409   9.447   2.488   7.598
28854SOL    HW291410   9.541   2.451   7.469
28855SOL     OW91411   9.535   2.137   8.444
28855SOL    HW191412   9.570   2.120   8.536
28855SOL    HW291413   9.447   2.092   8.432
28856SOL     OW91414   9.329   2.230   8.095
28856SOL    HW191415   9.247   2.273   8.134
28856SOL    HW291416   9.301   2.157   8.032
28857SOL     OW91417   9.879   3.137   8.613
28857SOL    HW191418   9.786   3.130   8.576
28857SOL    HW291419   9.890   3.226   8.657
28858SOL     OW91420  10.160   2.660   9.271
28858SOL    HW191421  10.156   2.736   9.336
28858SOL    HW291422  10.182   2.696   9.180
28859SOL     OW91423   9.645   3.297   8.509
28859SOL    HW191424   9.567   3.266   8.456
28859SOL    HW291425   9.703   3.355   8.452
28860SOL     OW91426   9.541   3.575   7.931
28860SOL    HW191427   9.575   3.652   7.985
28860SOL    HW291428   9.585   3.575   7.841
28861SOL     OW91429   9.540   3.296   7.986
28861SOL    HW191430   9.514   3.392   7.986
28861SOL    HW291431   9.469   3.242   8.031
28862SOL     OW91432   9.550   2.953   8.334
28862SOL    HW191433   9.564   2.869   8.386
28862SOL    HW291434   9.495   3.017   8.389
28863SOL     OW91435   9.432   2.505   8.011
28863SOL    HW191436   9.387   2.417   8.028
28863SOL    HW291437   9.431   2.559   8.095
28864SOL     OW91438   9.337   3.458   7.565
28864SOL    HW191439   9.318   3.362   7.586
28864SOL    HW291440   9.304   3.516   7.640
28865SOL     OW91441   9.923   3.227   8.174
28865SOL    HW191442   9.874   3.140   8.183
28865SOL    HW291443   9.900   3.270   8.087
28866SOL     OW91444   9.507   2.838   8.712
28866SOL    HW191445   9.596   2.793   8.698
28866SOL    HW291446   9.434   2.773   8.693
28867SOL     OW91447   9.627   2.113   9.249
28867SOL    HW191448   9.698   2.184   9.255
28867SOL    HW291449   9.539   2.152   9.277
28868SOL     OW91450   9.908   2.591   7.718
28868SOL    HW191451   9.932   2.660   7.650
28868SOL    HW291452   9.830   2.624   7.772
28869SOL     OW91453   9.386   2.673   8.237
28869SOL    HW191454   9.485   2.661   8.246
28869SOL    HW291455   9.362   2.768   8.258
28870SOL     OW91456   9.440   3.683   9.019
28870SOL    HW191457   9.430   3.668   9.118
28870SOL    HW291458   9.354   3.719   8.983
28871SOL     OW91459  10.175   2.210   7.643
28871SOL    HW191460  10.234   2.273   7.594
28871SOL    HW291461  10.194   2.116   7.614
28872SOL     OW91462   9.860   2.058   8.333
28872SOL    HW191463   9.855   2.053   8.433
28872SOL    HW291464   9.862   2.154   8.304
28873SOL     OW91465   9.661   3.663   8.301
28873SOL    HW191466   9.711   3.577   8.307
28873SOL    HW291467   9.726   3.740   8.298
28874SOL     OW91468   9.631   2.805   7.690
28874SOL    HW191469   9.713   2.844   7.648
28874SOL    HW291470   9.604   2.723   7.641
28875SOL     OW91471   9.771   3.128   9.175
28875SOL    HW191472   9.721   3.129   9.089
28875SOL    HW291473   9.708   3.110   9.251
28876SOL     OW91474   9.512   2.147   8.946
28876SOL    HW191475   9.432   2.207   8.933
28876SOL    HW291476   9.502   2.098   9.032
28877SOL     OW91477   9.774   3.605   7.771
28877SOL    HW191478   9.807   3.644   7.857
28877SOL    HW291479   9.850   3.598   7.706
28878SOL     OW91480   9.559   3.647   8.689
28878SOL    HW191481   9.616   3.582   8.739
28878SOL    HW291482   9.543   3.614   8.596
28879SOL     OW91483   9.692   2.562   7.928
28879SOL    HW191484   9.737   2.472   7.925
28879SOL    HW291485   9.598   2.551   7.961
28880SOL     OW91486   9.849   1.926   7.960
28880SOL    HW191487   9.768   1.927   8.018
28880SOL    HW291488   9.852   2.009   7.905
28881SOL     OW91489   9.607   1.897   7.619
28881SOL    HW191490   9.656   1.981   7.598
28881SOL    HW291491   9.669   1.832   7.664
28882SOL     OW91492  10.245   2.098   7.928
28882SOL    HW191493  10.197   2.139   7.850
28882SOL    HW291494  10.344   2.096   7.909
28883SOL     OW91495   9.769   3.014   8.189
28883SOL    HW191496   9.698   2.987   8.254
28883SOL    HW291497   9.743   2.986   8.096
28884SOL     OW91498   9.871   2.084   8.595
28884SOL    HW191499   9.909   2.000   8.632
28884SOL    HW291500   9.783   2.103   8.639
28885SOL     OW91501   9.837   2.118   7.776
28885SOL    HW191502   9.864   2.059   7.701
28885SOL    HW291503   9.837   2.213   7.745
28886SOL     OW91504   9.720   2.675   8.699
28886SOL    HW191505   9.806   2.687   8.749
28886SOL    HW291506   9.678   2.588   8.726
28887SOL     OW91507   9.374   3.426   8.779
28887SOL    HW191508   9.328   3.508   8.745
28887SOL    HW291509   9.472   3.445   8.788
28888SOL     OW91510   9.677   2.962   7.949
28888SOL    HW191511   9.670   3.045   7.893
28888SOL    HW291512   9.681   2.882   7.889
28889SOL     OW91513   9.876   2.399   8.313
28889SOL    HW191514   9.888   2.465   8.239
28889SOL    HW291515   9.922   2.433   8.396
28890SOL     OW91516   9.664   3.372   8.777
28890SOL    HW191517   9.643   3.328   8.690
28890SOL    HW291518   9.761   3.398   8.780
28891SOL     OW91519   9.814   1.912   9.188
28891SOL    HW191520   9.772   1.855   9.118
28891SOL    HW291521   9.748   1.981   9.220
28892SOL     OW91522   9.883   2.732   8.477
28892SOL    HW191523   9.927   2.821   8.468
28892SOL    HW291524   9.820   2.732   8.554
28893SOL     OW91525   9.617   2.075   8.679
28893SOL    HW191526   9.594   2.112   8.769
28893SOL    HW291527   9.587   1.980   8.673
28894SOL     OW91528   9.347   3.172   8.730
28894SOL    HW191529   9.400   3.123   8.798
28894SOL    HW291530   9.369   3.270   8.735
28895SOL     OW91531   9.617   1.925   8.066
28895SOL    HW191532   9.606   2.019   8.099
28895SOL    HW291533   9.612   1.862   8.143
28896SOL     OW91534   9.629   2.672   8.397
28896SOL    HW191535   9.722   2.708   8.402
28896SOL    HW291536   9.623   2.587   8.449
28897SOL     OW91537   9.649   2.371   8.454
28897SOL    HW191538   9.597   2.288   8.437
28897SOL    HW291539   9.726   2.376   8.390
28898SOL     OW91540   9.318   3.188   7.648
28898SOL    HW191541   9.225   3.209   7.617
28898SOL    HW291542   9.328   3.089   7.661
28899SOL     OW91543   9.398   3.663   8.375
28899SOL    HW191544   9.356   3.577   8.348
28899SOL    HW291545   9.492   3.666   8.341
28900SOL     OW91546   9.814   3.430   8.358
28900SOL    HW191547   9.880   3.504   8.367
28900SOL    HW291548   9.858   3.351   8.316
28901SOL     OW91549   9.350   2.406   8.562
28901SOL    HW191550   9.435   2.373   8.521
28901SOL    HW291551   9.363   2.421   8.660
28902SOL     OW91552  10.125   2.434   7.773
28902SOL    HW191553  10.132   2.345   7.727
28902SOL    HW291554  10.031   2.468   7.765
28903SOL     OW91555   9.562   3.426   9.192
28903SOL    HW191556   9.532   3.483   9.268
28903SOL    HW291557   9.555   3.329   9.218
28904SOL     OW91558   9.783   2.362   7.639
28904SOL    HW191559   9.844   2.442   7.643
28904SOL    HW291560   9.688   2.393   7.646
28905SOL     OW91561   9.469   2.999   8.914
28905SOL    HW191562   9.491   2.938   8.990
28905SOL    HW291563   9.479   2.950   8.828
28906SOL     OW91564   9.393   3.120   8.470
28906SOL    HW191565   9.388   3.119   8.570
28906SOL    HW291566   9.310   3.079   8.432
28907SOL     OW91567   9.998   3.524   9.164
28907SOL    HW191568   9.942   3.605   9.173
28907SOL    HW291569  10.050   3.528   9.078
28908SOL     OW91570   9.440   3.656   9.299
28908SOL    HW191571   9.399   3.582   9.352
28908SOL    HW291572   9.504   3.707   9.357
28909SOL     OW91573   9.573   2.188   8.168
28909SOL    HW191574   9.494   2.239   8.134
28909SOL    HW291575   9.564   2.173   8.266
28910SOL     OW91576   9.682   3.150   8.938
28910SOL    HW191577   9.669   3.243   8.904
28910SOL    HW291578   9.598   3.098   8.925
28911SOL     OW91579   9.900   3.349   7.939
28911SOL    HW191580   9.942   3.291   7.869
28911SOL    HW291581   9.856   3.428   7.895
28912SOL     OW91582   9.565   3.210   7.738
28912SOL    HW191583   9.469   3.211   7.711
28912SOL    HW291584   9.577   3.263   7.822
28913SOL     OW91585   9.415   2.875   9.174
28913SOL    HW191586   9.338   2.842   9.228
28913SOL    HW291587   9.500   2.845   9.216
28914SOL     OW91588   9.982   2.065   8.937
28914SOL    HW191589  10.072   2.049   8.897
28914SOL    HW291590   9.990   2.070   9.036
28915SOL     OW91591   9.385   2.207   7.481
28915SOL    HW191592   9.293   2.179   7.452
28915SOL    HW291593   9.416   2.284   7.425
28916SOL     OW91594   9.382   2.028   7.766
28916SOL    HW191595   9.365   2.111   7.712
28916SOL    HW291596   9.472   1.991   7.744
28917SOL     OW91597   9.923   2.704   8.879
28917SOL    HW191598   9.979   2.785   8.862
28917SOL    HW291599   9.982   2.624   8.882
28918SOL     OW91600   9.700   3.603   9.008
28918SOL    HW191601   9.609   3.644   9.006
28918SOL    HW291602   9.693   3.509   9.040
28919SOL     OW91603   9.904   2.607   8.100
28919SOL    HW191604   9.954   2.692   8.081
28919SOL    HW291605   9.816   2.609   8.052
28920SOL     OW91606   9.531   3.176   9.292
28920SOL    HW191607   9.466   3.103   9.271
28920SOL    HW291608   9.535   3.190   9.390
28921SOL     OW91609   9.389   3.102   8.101
28921SOL    HW191610   9.388   3.055   8.189
28921SOL    HW291611   9.471   3.074   8.050
28922SOL     OW91612   9.982   3.253   9.072
28922SOL    HW191613   9.904   3.203   9.110
28922SOL    HW291614   9.979   3.348   9.103
28923SOL     OW91615   9.738   2.286   7.968
28923SOL    HW191616   9.768   2.214   7.906
28923SOL    HW291617   9.699   2.246   8.051
28924SOL     OW91618   9.349   2.939   7.748
28924SOL    HW191619   9.448   2.928   7.739
28924SOL    HW291620   9.309   2.853   7.780
28925SOL     OW91621   9.541   3.575   9.793
28925SOL    HW191622   9.575   3.652   9.847
28925SOL    HW291623   9.585   3.575   9.703
28926SOL     OW91624   9.540   3.296   9.848
28926SOL    HW191625   9.514   3.392   9.848
28926SOL    HW291626   9.469   3.242   9.893
28927SOL     OW91627   9.432   2.505   9.873
28927SOL    HW191628   9.387   2.417   9.890
28927SOL    HW291629   9.431   2.559   9.957
28928SOL     OW91630   9.337   3.458   9.427
28928SOL    HW191631   9.318   3.362   9.448
28928SOL    HW291632   9.304   3.516   9.502
28929SOL     OW91633  10.119   1.866   9.812
28929SOL    HW191634  10.159   1.957   9.803
28929SOL    HW291635  10.019   1.874   9.818
28930SOL     OW91636   9.908   2.591   9.580
28930SOL    HW191637   9.932   2.660   9.512
28930SOL    HW291638   9.830   2.624   9.634
28931SOL     OW91639   9.386   2.673  10.099
28931SOL    HW191640   9.485   2.661  10.108
28931SOL    HW291641   9.362   2.768  10.120
28932SOL     OW91642  10.175   2.210   9.505
28932SOL    HW191643  10.234   2.273   9.456
28932SOL    HW291644  10.194   2.116   9.476
28933SOL     OW91645   9.661   3.663  10.163
28933SOL    HW191646   9.711   3.577  10.169
28933SOL    HW291647   9.726   3.740  10.160
28934SOL     OW91648   9.631   2.805   9.552
28934SOL    HW191649   9.713   2.844   9.510
28934SOL    HW291650   9.604   2.723   9.503
28935SOL     OW91651   9.774   3.605   9.633
28935SOL    HW191652   9.807   3.644   9.719
28935SOL    HW291653   9.850   3.598   9.568
28936SOL     OW91654   9.692   2.562   9.790
28936SOL    HW191655   9.737   2.472   9.787
28936SOL    HW291656   9.598   2.551   9.823
28937SOL     OW91657   9.924   1.984   9.427
28937SOL    HW191658  10.022   1.962   9.434
28937SOL    HW291659   9.893   1.967   9.334
28938SOL     OW91660   9.849   1.926   9.822
28938SOL    HW191661   9.768   1.927   9.880
28938SOL    HW291662   9.852   2.009   9.767
28939SOL     OW91663   9.607   1.897   9.481
28939SOL    HW191664   9.656   1.981   9.460
28939SOL    HW291665   9.669   1.832   9.526
28940SOL     OW91666  10.245   2.098   9.790
28940SOL    HW191667  10.197   2.139   9.712
28940SOL    HW291668  10.344   2.096   9.771
28941SOL     OW91669   9.769   3.014  10.051
28941SOL    HW191670   9.698   2.987  10.116
28941SOL    HW291671   9.743   2.986   9.958
28942SOL     OW91672   9.837   2.118   9.638
28942SOL    HW191673   9.864   2.059   9.563
28942SOL    HW291674   9.837   2.213   9.607
28943SOL     OW91675   9.677   2.962   9.811
28943SOL    HW191676   9.670   3.045   9.755
28943SOL    HW291677   9.681   2.882   9.751
28944SOL     OW91678   9.617   1.925   9.928
28944SOL    HW191679   9.606   2.019   9.961
28944SOL    HW291680   9.612   1.862  10.005
28945SOL     OW91681   9.318   3.188   9.510
28945SOL    HW191682   9.225   3.209   9.479
28945SOL    HW291683   9.328   3.089   9.523
28946SOL     OW91684  10.125   2.434   9.635
28946SOL    HW191685  10.132   2.345   9.589
28946SOL    HW291686  10.031   2.468   9.627
28947SOL     OW91687   9.783   2.362   9.501
28947SOL    HW191688   9.844   2.442   9.505
28947SOL    HW291689   9.688   2.393   9.508
28948SOL     OW91690   9.900   3.349   9.801
28948SOL    HW191691   9.942   3.291   9.731
28948SOL    HW291692   9.856   3.428   9.757
28949SOL     OW91693   9.565   3.210   9.600
28949SOL    HW191694   9.469   3.211   9.573
28949SOL    HW291695   9.577   3.263   9.684
28950SOL     OW91696   9.385   2.207   9.343
28950SOL    HW191697   9.293   2.179   9.314
28950SOL    HW291698   9.416   2.284   9.287
28951SOL     OW91699   9.382   2.028   9.628
28951SOL    HW191700   9.365   2.111   9.574
28951SOL    HW291701   9.472   1.991   9.606
28952SOL     OW91702   9.904   2.607   9.962
28952SOL    HW191703   9.954   2.692   9.943
28952SOL    HW291704   9.816   2.609   9.914
28953SOL     OW91705   9.389   3.102   9.963
28953SOL    HW191706   9.388   3.055  10.051
28953SOL    HW291707   9.471   3.074   9.912
28954SOL     OW91708   9.738   2.286   9.830
28954SOL    HW191709   9.768   2.214   9.768
28954SOL    HW291710   9.699   2.246   9.913
28955SOL     OW91711   9.349   2.939   9.610
28955SOL    HW191712   9.448   2.928   9.601
28955SOL    HW291713   9.309   2.853   9.642
28956SOL     OW91714   9.540   4.352   0.113
28956SOL    HW191715   9.447   4.350   0.150
28956SOL    HW291716   9.541   4.313   0.021
28957SOL     OW91717   9.329   4.092   0.647
28957SOL    HW191718   9.247   4.135   0.686
28957SOL    HW291719   9.301   4.019   0.584
28958SOL     OW91720   9.879   4.999   1.165
28958SOL    HW191721   9.786   4.992   1.128
28958SOL    HW291722   9.890   5.088   1.209
28959SOL     OW91723  10.160   4.522   1.823
28959SOL    HW191724  10.156   4.598   1.888
28959SOL    HW291725  10.182   4.558   1.732
28960SOL     OW91726   9.645   5.159   1.061
28960SOL    HW191727   9.567   5.128   1.008
28960SOL    HW291728   9.703   5.217   1.004
28961SOL     OW91729   9.748   4.116   1.499
28961SOL    HW191730   9.830   4.060   1.508
28961SOL    HW291731   9.667   4.058   1.503
28962SOL     OW91732   9.541   5.437   0.483
28962SOL    HW191733   9.575   5.514   0.537
28962SOL    HW291734   9.585   5.437   0.393
28963SOL     OW91735   9.540   5.158   0.538
28963SOL    HW191736   9.514   5.254   0.538
28963SOL    HW291737   9.469   5.104   0.583
28964SOL     OW91738   9.550   4.815   0.886
28964SOL    HW191739   9.564   4.731   0.938
28964SOL    HW291740   9.495   4.879   0.941
28965SOL     OW91741   9.432   4.367   0.563
28965SOL    HW191742   9.387   4.279   0.580
28965SOL    HW291743   9.431   4.421   0.647
28966SOL     OW91744   9.337   5.320   0.117
28966SOL    HW191745   9.318   5.224   0.138
28966SOL    HW291746   9.304   5.378   0.192
28967SOL     OW91747   9.423   4.461   1.597
28967SOL    HW191748   9.511   4.448   1.642
28967SOL    HW291749   9.410   4.558   1.575
28968SOL     OW91750   9.923   5.089   0.726
28968SOL    HW191751   9.874   5.002   0.735
28968SOL    HW291752   9.900   5.132   0.639
28969SOL     OW91753  10.119   3.728   0.502
28969SOL    HW191754  10.159   3.819   0.493
28969SOL    HW291755  10.019   3.736   0.508
28970SOL     OW91756   9.507   4.700   1.264
28970SOL    HW191757   9.596   4.655   1.250
28970SOL    HW291758   9.434   4.635   1.245
28971SOL     OW91759   9.627   3.975   1.801
28971SOL    HW191760   9.698   4.046   1.807
28971SOL    HW291761   9.539   4.014   1.829
28972SOL     OW91762   9.908   4.453   0.270
28972SOL    HW191763   9.932   4.522   0.202
28972SOL    HW291764   9.830   4.486   0.324
28973SOL     OW91765   9.386   4.535   0.789
28973SOL    HW191766   9.485   4.523   0.798
28973SOL    HW291767   9.362   4.630   0.810
28974SOL     OW91768  10.175   4.072   0.195
28974SOL    HW191769  10.234   4.135   0.146
28974SOL    HW291770  10.194   3.978   0.166
28975SOL     OW91771   9.860   3.920   0.885
28975SOL    HW191772   9.855   3.915   0.985
28975SOL    HW291773   9.862   4.016   0.856
28976SOL     OW91774   9.661   5.525   0.853
28976SOL    HW191775   9.711   5.439   0.859
28976SOL    HW291776   9.726   5.602   0.850
28977SOL     OW91777   9.631   4.667   0.242
28977SOL    HW191778   9.713   4.706   0.200
28977SOL    HW291779   9.604   4.585   0.193
28978SOL     OW91780   9.771   4.990   1.727
28978SOL    HW191781   9.721   4.991   1.641
28978SOL    HW291782   9.708   4.972   1.803
28979SOL     OW91783   9.512   4.009   1.498
28979SOL    HW191784   9.432   4.069   1.485
28979SOL    HW291785   9.502   3.960   1.584
28980SOL     OW91786   9.774   5.467   0.323
28980SOL    HW191787   9.807   5.506   0.409
28980SOL    HW291788   9.850   5.460   0.258
28981SOL     OW91789   9.559   5.509   1.241
28981SOL    HW191790   9.616   5.444   1.291
28981SOL    HW291791   9.543   5.476   1.148
28982SOL     OW91792   9.692   4.424   0.480
28982SOL    HW191793   9.737   4.334   0.477
28982SOL    HW291794   9.598   4.413   0.513
28983SOL     OW91795   9.924   3.846   0.117
28983SOL    HW191796  10.022   3.824   0.124
28983SOL    HW291797   9.893   3.829   0.024
28984SOL     OW91798  10.113   5.126   0.924
28984SOL    HW191799  10.203   5.140   0.882
28984SOL    HW291800  10.042   5.128   0.853
28985SOL     OW91801   9.849   3.788   0.512
28985SOL    HW191802   9.768   3.789   0.570
28985SOL    HW291803   9.852   3.871   0.457
28986SOL     OW91804  10.245   3.960   0.480
28986SOL    HW191805  10.197   4.001   0.402
28986SOL    HW291806  10.344   3.958   0.461
28987SOL     OW91807   9.769   4.876   0.741
28987SOL    HW191808   9.698   4.849   0.806
28987SOL    HW291809   9.743   4.848   0.648
28988SOL     OW91810   9.388   4.280   1.386
28988SOL    HW191811   9.480   4.279   1.345
28988SOL    HW291812   9.382   4.354   1.453
28989SOL     OW91813   9.871   3.946   1.147
28989SOL    HW191814   9.909   3.862   1.184
28989SOL    HW291815   9.783   3.965   1.191
28990SOL     OW91816   9.837   3.980   0.328
28990SOL    HW191817   9.864   3.921   0.253
28990SOL    HW291818   9.837   4.075   0.297
28991SOL     OW91819   9.720   4.537   1.251
28991SOL    HW191820   9.806   4.549   1.301
28991SOL    HW291821   9.678   4.450   1.278
28992SOL     OW91822   9.374   5.288   1.331
28992SOL    HW191823   9.328   5.370   1.297
28992SOL    HW291824   9.472   5.307   1.340
28993SOL     OW91825   9.677   4.824   0.501
28993SOL    HW191826   9.670   4.907   0.445
28993SOL    HW291827   9.681   4.744   0.441
28994SOL     OW91828   9.876   4.261   0.865
28994SOL    HW191829   9.888   4.327   0.791
28994SOL    HW291830   9.922   4.295   0.948
28995SOL     OW91831   9.664   5.234   1.329
28995SOL    HW191832   9.643   5.190   1.242
28995SOL    HW291833   9.761   5.260   1.332
28996SOL     OW91834   9.712   4.475   1.598
28996SOL    HW191835   9.780   4.530   1.551
28996SOL    HW291836   9.752   4.387   1.625
28997SOL     OW91837   9.883   4.594   1.029
28997SOL    HW191838   9.927   4.683   1.020
28997SOL    HW291839   9.820   4.594   1.106
28998SOL     OW91840   9.617   3.937   1.231
28998SOL    HW191841   9.594   3.974   1.321
28998SOL    HW291842   9.587   3.842   1.225
28999SOL     OW91843   9.617   3.787   0.618
28999SOL    HW191844   9.606   3.881   0.651
28999SOL    HW291845   9.612   3.724   0.695
29000SOL     OW91846   9.660   4.622   1.804
29000SOL    HW191847   9.736   4.666   1.852
29000SOL    HW291848   9.695   4.575   1.722
29001SOL     OW91849   9.629   4.534   0.949
29001SOL    HW191850   9.722   4.570   0.954
29001SOL    HW291851   9.623   4.449   1.001
29002SOL     OW91852   9.649   4.233   1.006
29002SOL    HW191853   9.597   4.150   0.989
29002SOL    HW291854   9.726   4.238   0.942
29003SOL     OW91855   9.318   5.050   0.200
29003SOL    HW191856   9.225   5.071   0.169
29003SOL    HW291857   9.328   4.951   0.213
29004SOL     OW91858   9.814   5.292   0.910
29004SOL    HW191859   9.880   5.366   0.919
29004SOL    HW291860   9.858   5.213   0.868
29005SOL     OW91861   9.499   4.244   1.722
29005SOL    HW191862   9.558   4.204   1.652
29005SOL    HW291863   9.441   4.315   1.681
29006SOL     OW91864  10.125   4.296   0.325
29006SOL    HW191865  10.132   4.207   0.279
29006SOL    HW291866  10.031   4.330   0.317
29007SOL     OW91867   9.562   5.288   1.744
29007SOL    HW191868   9.532   5.345   1.820
29007SOL    HW291869   9.555   5.191   1.770
29008SOL     OW91870   9.783   4.224   0.191
29008SOL    HW191871   9.844   4.304   0.195
29008SOL    HW291872   9.688   4.255   0.198
29009SOL     OW91873   9.393   4.982   1.022
29009SOL    HW191874   9.388   4.981   1.122
29009SOL    HW291875   9.310   4.941   0.984
29010SOL     OW91876   9.998   5.386   1.716
29010SOL    HW191877   9.942   5.467   1.725
29010SOL    HW291878  10.050   5.390   1.630
29011SOL     OW91879   9.440   5.518   1.851
29011SOL    HW191880   9.399   5.444   1.904
29011SOL    HW291881   9.504   5.569   1.909
29012SOL     OW91882   9.573   4.050   0.720
29012SOL    HW191883   9.494   4.101   0.686
29012SOL    HW291884   9.564   4.035   0.818
29013SOL     OW91885   9.682   5.012   1.490
29013SOL    HW191886   9.669   5.105   1.456
29013SOL    HW291887   9.598   4.960   1.477
29014SOL     OW91888   9.900   5.211   0.491
29014SOL    HW191889   9.942   5.153   0.421
29014SOL    HW291890   9.856   5.290   0.447
29015SOL     OW91891   9.565   5.072   0.290
29015SOL    HW191892   9.469   5.073   0.263
29015SOL    HW291893   9.577   5.125   0.374
29016SOL     OW91894   9.415   4.737   1.726
29016SOL    HW191895   9.338   4.704   1.780
29016SOL    HW291896   9.500   4.707   1.768
29017SOL     OW91897   9.385   4.069   0.033
29017SOL    HW191898   9.293   4.041   0.004
29017SOL    HW291899   9.416   4.146  -0.023
29018SOL     OW91900   9.382   3.890   0.318
29018SOL    HW191901   9.365   3.973   0.264
29018SOL    HW291902   9.472   3.853   0.296
29019SOL     OW91903   9.923   4.566   1.431
29019SOL    HW191904   9.979   4.647   1.414
29019SOL    HW291905   9.982   4.486   1.434
29020SOL     OW91906   9.700   5.465   1.560
29020SOL    HW191907   9.609   5.506   1.558
29020SOL    HW291908   9.693   5.371   1.592
29021SOL     OW91909   9.531   5.038   1.844
29021SOL    HW191910   9.466   4.965   1.823
29021SOL    HW291911   9.535   5.052   1.942
29022SOL     OW91912   9.389   4.964   0.653
29022SOL    HW191913   9.388   4.917   0.741
29022SOL    HW291914   9.471   4.936   0.602
29023SOL     OW91915   9.982   5.115   1.624
29023SOL    HW191916   9.904   5.065   1.662
29023SOL    HW291917   9.979   5.210   1.655
29024SOL     OW91918   9.738   4.148   0.520
29024SOL    HW191919   9.768   4.076   0.458
29024SOL    HW291920   9.699   4.108   0.603
29025SOL     OW91921   9.627   4.271   1.280
29025SOL    HW191922   9.665   4.212   1.352
29025SOL    HW291923   9.667   4.245   1.192
29026SOL     OW91924   9.349   4.801   0.300
29026SOL    HW191925   9.448   4.790   0.291
29026SOL    HW291926   9.309   4.715   0.332
29027SOL     OW91927   9.540   4.352   1.975
29027SOL    HW191928   9.447   4.350   2.012
29027SOL    HW291929   9.541   4.313   1.883
29028SOL     OW91930   9.329   4.092   2.509
29028SOL    HW191931   9.247   4.135   2.548
29028SOL    HW291932   9.301   4.019   2.446
29029SOL     OW91933   9.879   4.999   3.027
29029SOL    HW191934   9.786   4.992   2.990
29029SOL    HW291935   9.890   5.088   3.071
29030SOL     OW91936  10.160   4.522   3.685
29030SOL    HW191937  10.156   4.598   3.750
29030SOL    HW291938  10.182   4.558   3.594
29031SOL     OW91939   9.645   5.159   2.923
29031SOL    HW191940   9.567   5.128   2.870
29031SOL    HW291941   9.703   5.217   2.866
29032SOL     OW91942   9.748   4.116   3.361
29032SOL    HW191943   9.830   4.060   3.370
29032SOL    HW291944   9.667   4.058   3.365
29033SOL     OW91945   9.540   5.158   2.400
29033SOL    HW191946   9.514   5.254   2.400
29033SOL    HW291947   9.469   5.104   2.445
29034SOL     OW91948   9.550   4.815   2.748
29034SOL    HW191949   9.564   4.731   2.800
29034SOL    HW291950   9.495   4.879   2.803
29035SOL     OW91951   9.432   4.367   2.425
29035SOL    HW191952   9.387   4.279   2.442
29035SOL    HW291953   9.431   4.421   2.509
29036SOL     OW91954   9.337   5.320   1.979
29036SOL    HW191955   9.318   5.224   2.000
29036SOL    HW291956   9.304   5.378   2.054
29037SOL     OW91957   9.423   4.461   3.459
29037SOL    HW191958   9.511   4.448   3.504
29037SOL    HW291959   9.410   4.558   3.437
29038SOL     OW91960  10.119   3.728   2.364
29038SOL    HW191961  10.159   3.819   2.355
29038SOL    HW291962  10.019   3.736   2.370
29039SOL     OW91963   9.507   4.700   3.126
29039SOL    HW191964   9.596   4.655   3.112
29039SOL    HW291965   9.434   4.635   3.107
29040SOL     OW91966   9.627   3.975   3.663
29040SOL    HW191967   9.698   4.046   3.669
29040SOL    HW291968   9.539   4.014   3.691
29041SOL     OW91969   9.908   4.453   2.132
29041SOL    HW191970   9.932   4.522   2.064
29041SOL    HW291971   9.830   4.486   2.186
29042SOL     OW91972   9.386   4.535   2.651
29042SOL    HW191973   9.485   4.523   2.660
29042SOL    HW291974   9.362   4.630   2.672
29043SOL     OW91975   9.440   5.545   3.433
29043SOL    HW191976   9.430   5.530   3.532
29043SOL    HW291977   9.354   5.581   3.397
29044SOL     OW91978  10.175   4.072   2.057
29044SOL    HW191979  10.234   4.135   2.008
29044SOL    HW291980  10.194   3.978   2.028
29045SOL     OW91981   9.631   4.667   2.104
29045SOL    HW191982   9.713   4.706   2.062
29045SOL    HW291983   9.604   4.585   2.055
29046SOL     OW91984   9.771   4.990   3.589
29046SOL    HW191985   9.721   4.991   3.503
29046SOL    HW291986   9.708   4.972   3.665
29047SOL     OW91987   9.512   4.009   3.360
29047SOL    HW191988   9.432   4.069   3.347
29047SOL    HW291989   9.502   3.960   3.446
29048SOL     OW91990   9.692   4.424   2.342
29048SOL    HW191991   9.737   4.334   2.339
29048SOL    HW291992   9.598   4.413   2.375
29049SOL     OW91993   9.924   3.846   1.979
29049SOL    HW191994  10.022   3.824   1.986
29049SOL    HW291995   9.893   3.829   1.886
29050SOL     OW91996  10.113   5.126   2.786
29050SOL    HW191997  10.203   5.140   2.744
29050SOL    HW291998  10.042   5.128   2.715
29051SOL     OW91999   9.849   3.788   2.374
29051SOL    HW192000   9.768   3.789   2.432
29051SOL    HW292001   9.852   3.871   2.319
29052SOL     OW92002   9.607   3.759   2.033
29052SOL    HW192003   9.656   3.843   2.012
29052SOL    HW292004   9.669   3.694   2.078
29053SOL     OW92005  10.245   3.960   2.342
29053SOL    HW192006  10.197   4.001   2.264
29053SOL    HW292007  10.344   3.958   2.323
29054SOL     OW92008   9.769   4.876   2.603
29054SOL    HW192009   9.698   4.849   2.668
29054SOL    HW292010   9.743   4.848   2.510
29055SOL     OW92011   9.388   4.280   3.248
29055SOL    HW192012   9.480   4.279   3.207
29055SOL    HW292013   9.382   4.354   3.315
29056SOL     OW92014   9.837   3.980   2.190
29056SOL    HW192015   9.864   3.921   2.115
29056SOL    HW292016   9.837   4.075   2.159
29057SOL     OW92017   9.720   4.537   3.113
29057SOL    HW192018   9.806   4.549   3.163
29057SOL    HW292019   9.678   4.450   3.140
29058SOL     OW92020   9.374   5.288   3.193
29058SOL    HW192021   9.328   5.370   3.159
29058SOL    HW292022   9.472   5.307   3.202
29059SOL     OW92023   9.677   4.824   2.363
29059SOL    HW192024   9.670   4.907   2.307
29059SOL    HW292025   9.681   4.744   2.303
29060SOL     OW92026   9.876   4.261   2.727
29060SOL    HW192027   9.888   4.327   2.653
29060SOL    HW292028   9.922   4.295   2.810
29061SOL     OW92029   9.664   5.234   3.191
29061SOL    HW192030   9.643   5.190   3.104
29061SOL    HW292031   9.761   5.260   3.194
29062SOL     OW92032   9.712   4.475   3.460
29062SOL    HW192033   9.780   4.530   3.413
29062SOL    HW292034   9.752   4.387   3.487
29063SOL     OW92035   9.814   3.774   3.602
29063SOL    HW192036   9.772   3.717   3.532
29063SOL    HW292037   9.748   3.843   3.634
29064SOL     OW92038   9.883   4.594   2.891
29064SOL    HW192039   9.927   4.683   2.882
29064SOL    HW292040   9.820   4.594   2.968
29065SOL     OW92041   9.617   3.937   3.093
29065SOL    HW192042   9.594   3.974   3.183
29065SOL    HW292043   9.587   3.842   3.087
29066SOL     OW92044   9.347   5.034   3.144
29066SOL    HW192045   9.400   4.985   3.212
29066SOL    HW292046   9.369   5.132   3.149
29067SOL     OW92047   9.617   3.787   2.480
29067SOL    HW192048   9.606   3.881   2.513
29067SOL    HW292049   9.612   3.724   2.557
29068SOL     OW92050   9.660   4.622   3.666
29068SOL    HW192051   9.736   4.666   3.714
29068SOL    HW292052   9.695   4.575   3.584
29069SOL     OW92053   9.629   4.534   2.811
29069SOL    HW192054   9.722   4.570   2.816
29069SOL    HW292055   9.623   4.449   2.863
29070SOL     OW92056   9.318   5.050   2.062
29070SOL    HW192057   9.225   5.071   2.031
29070SOL    HW292058   9.328   4.951   2.075
29071SOL     OW92059   9.398   5.525   2.789
29071SOL    HW192060   9.356   5.439   2.762
29071SOL    HW292061   9.492   5.528   2.755
29072SOL     OW92062   9.814   5.292   2.772
29072SOL    HW192063   9.880   5.366   2.781
29072SOL    HW292064   9.858   5.213   2.730
29073SOL     OW92065   9.499   4.244   3.584
29073SOL    HW192066   9.558   4.204   3.514
29073SOL    HW292067   9.441   4.315   3.543
29074SOL     OW92068  10.125   4.296   2.187
29074SOL    HW192069  10.132   4.207   2.141
29074SOL    HW292070  10.031   4.330   2.179
29075SOL     OW92071   9.562   5.288   3.606
29075SOL    HW192072   9.532   5.345   3.682
29075SOL    HW292073   9.555   5.191   3.632
29076SOL     OW92074   9.783   4.224   2.053
29076SOL    HW192075   9.844   4.304   2.057
29076SOL    HW292076   9.688   4.255   2.060
29077SOL     OW92077   9.469   4.861   3.328
29077SOL    HW192078   9.491   4.800   3.404
29077SOL    HW292079   9.479   4.812   3.242
29078SOL     OW92080   9.393   4.982   2.884
29078SOL    HW192081   9.388   4.981   2.984
29078SOL    HW292082   9.310   4.941   2.846
29079SOL     OW92083   9.998   5.386   3.578
29079SOL    HW192084   9.942   5.467   3.587
29079SOL    HW292085  10.050   5.390   3.492
29080SOL     OW92086   9.440   5.518   3.713
29080SOL    HW192087   9.399   5.444   3.766
29080SOL    HW292088   9.504   5.569   3.771
29081SOL     OW92089   9.682   5.012   3.352
29081SOL    HW192090   9.669   5.105   3.318
29081SOL    HW292091   9.598   4.960   3.339
29082SOL     OW92092   9.565   5.072   2.152
29082SOL    HW192093   9.469   5.073   2.125
29082SOL    HW292094   9.577   5.125   2.236
29083SOL     OW92095   9.415   4.737   3.588
29083SOL    HW192096   9.338   4.704   3.642
29083SOL    HW292097   9.500   4.707   3.630
29084SOL     OW92098   9.982   3.927   3.351
29084SOL    HW192099  10.072   3.911   3.311
29084SOL    HW292100   9.990   3.932   3.450
29085SOL     OW92101   9.385   4.069   1.895
29085SOL    HW192102   9.293   4.041   1.866
29085SOL    HW292103   9.416   4.146   1.839
29086SOL     OW92104   9.382   3.890   2.180
29086SOL    HW192105   9.365   3.973   2.126
29086SOL    HW292106   9.472   3.853   2.158
29087SOL     OW92107   9.923   4.566   3.293
29087SOL    HW192108   9.979   4.647   3.276
29087SOL    HW292109   9.982   4.486   3.296
29088SOL     OW92110   9.700   5.465   3.422
29088SOL    HW192111   9.609   5.506   3.420
29088SOL    HW292112   9.693   5.371   3.454
29089SOL     OW92113   9.904   4.469   2.514
29089SOL    HW192114   9.954   4.554   2.495
29089SOL    HW292115   9.816   4.471   2.466
29090SOL     OW92116   9.531   5.038   3.706
29090SOL    HW192117   9.466   4.965   3.685
29090SOL    HW292118   9.535   5.052   3.804
29091SOL     OW92119   9.389   4.964   2.515
29091SOL    HW192120   9.388   4.917   2.603
29091SOL    HW292121   9.471   4.936   2.464
29092SOL     OW92122   9.738   4.148   2.382
29092SOL    HW192123   9.768   4.076   2.320
29092SOL    HW292124   9.699   4.108   2.465
29093SOL     OW92125   9.349   4.801   2.162
29093SOL    HW192126   9.448   4.790   2.153
29093SOL    HW292127   9.309   4.715   2.194
29094SOL     OW92128   9.540   4.352   3.837
29094SOL    HW192129   9.447   4.350   3.874
29094SOL    HW292130   9.541   4.313   3.745
29095SOL     OW92131   9.535   3.999   4.720
29095SOL    HW192132   9.570   3.982   4.812
29095SOL    HW292133   9.447   3.954   4.708
29096SOL     OW92134   9.329   4.092   4.371
29096SOL    HW192135   9.247   4.135   4.410
29096SOL    HW292136   9.301   4.019   4.308
29097SOL     OW92137   9.879   4.999   4.889
29097SOL    HW192138   9.786   4.992   4.852
29097SOL    HW292139   9.890   5.088   4.933
29098SOL     OW92140  10.160   4.522   5.547
29098SOL    HW192141  10.156   4.598   5.612
29098SOL    HW292142  10.182   4.558   5.456
29099SOL     OW92143   9.645   5.159   4.785
29099SOL    HW192144   9.567   5.128   4.732
29099SOL    HW292145   9.703   5.217   4.728
29100SOL     OW92146   9.748   4.116   5.223
29100SOL    HW192147   9.830   4.060   5.232
29100SOL    HW292148   9.667   4.058   5.227
29101SOL     OW92149   9.541   5.437   4.207
29101SOL    HW192150   9.575   5.514   4.261
29101SOL    HW292151   9.585   5.437   4.117
29102SOL     OW92152   9.550   4.815   4.610
29102SOL    HW192153   9.564   4.731   4.662
29102SOL    HW292154   9.495   4.879   4.665
29103SOL     OW92155   9.432   4.367   4.287
29103SOL    HW192156   9.387   4.279   4.304
29103SOL    HW292157   9.431   4.421   4.371
29104SOL     OW92158   9.337   5.320   3.841
29104SOL    HW192159   9.318   5.224   3.862
29104SOL    HW292160   9.304   5.378   3.916
29105SOL     OW92161   9.423   4.461   5.321
29105SOL    HW192162   9.511   4.448   5.366
29105SOL    HW292163   9.410   4.558   5.299
29106SOL     OW92164   9.923   5.089   4.450
29106SOL    HW192165   9.874   5.002   4.459
29106SOL    HW292166   9.900   5.132   4.363
29107SOL     OW92167  10.119   3.728   4.226
29107SOL    HW192168  10.159   3.819   4.217
29107SOL    HW292169  10.019   3.736   4.232
29108SOL     OW92170   9.507   4.700   4.988
29108SOL    HW192171   9.596   4.655   4.974
29108SOL    HW292172   9.434   4.635   4.969
29109SOL     OW92173   9.627   3.975   5.525
29109SOL    HW192174   9.698   4.046   5.531
29109SOL    HW292175   9.539   4.014   5.553
29110SOL     OW92176   9.908   4.453   3.994
29110SOL    HW192177   9.932   4.522   3.926
29110SOL    HW292178   9.830   4.486   4.048
29111SOL     OW92179   9.386   4.535   4.513
29111SOL    HW192180   9.485   4.523   4.522
29111SOL    HW292181   9.362   4.630   4.534
29112SOL     OW92182   9.440   5.545   5.295
29112SOL    HW192183   9.430   5.530   5.394
29112SOL    HW292184   9.354   5.581   5.259
29113SOL     OW92185  10.175   4.072   3.919
29113SOL    HW192186  10.234   4.135   3.870
29113SOL    HW292187  10.194   3.978   3.890
29114SOL     OW92188   9.860   3.920   4.609
29114SOL    HW192189   9.855   3.915   4.709
29114SOL    HW292190   9.862   4.016   4.580
29115SOL     OW92191   9.661   5.525   4.577
29115SOL    HW192192   9.711   5.439   4.583
29115SOL    HW292193   9.726   5.602   4.574
29116SOL     OW92194   9.631   4.667   3.966
29116SOL    HW192195   9.713   4.706   3.924
29116SOL    HW292196   9.604   4.585   3.917
29117SOL     OW92197   9.771   4.990   5.451
29117SOL    HW192198   9.721   4.991   5.365
29117SOL    HW292199   9.708   4.972   5.527
29118SOL     OW92200   9.774   5.467   4.047
29118SOL    HW192201   9.807   5.506   4.133
29118SOL    HW292202   9.850   5.460   3.982
29119SOL     OW92203   9.692   4.424   4.204
29119SOL    HW192204   9.737   4.334   4.201
29119SOL    HW292205   9.598   4.413   4.237
29120SOL     OW92206   9.924   3.846   3.841
29120SOL    HW192207  10.022   3.824   3.848
29120SOL    HW292208   9.893   3.829   3.748
29121SOL     OW92209  10.113   5.126   4.648
29121SOL    HW192210  10.203   5.140   4.606
29121SOL    HW292211  10.042   5.128   4.577
29122SOL     OW92212   9.849   3.788   4.236
29122SOL    HW192213   9.768   3.789   4.294
29122SOL    HW292214   9.852   3.871   4.181
29123SOL     OW92215   9.607   3.759   3.895
29123SOL    HW192216   9.656   3.843   3.874
29123SOL    HW292217   9.669   3.694   3.940
29124SOL     OW92218  10.245   3.960   4.204
29124SOL    HW192219  10.197   4.001   4.126
29124SOL    HW292220  10.344   3.958   4.185
29125SOL     OW92221   9.769   4.876   4.465
29125SOL    HW192222   9.698   4.849   4.530
29125SOL    HW292223   9.743   4.848   4.372
29126SOL     OW92224   9.388   4.280   5.110
29126SOL    HW192225   9.480   4.279   5.069
29126SOL    HW292226   9.382   4.354   5.177
29127SOL     OW92227   9.871   3.946   4.871
29127SOL    HW192228   9.909   3.862   4.908
29127SOL    HW292229   9.783   3.965   4.915
29128SOL     OW92230   9.837   3.980   4.052
29128SOL    HW192231   9.864   3.921   3.977
29128SOL    HW292232   9.837   4.075   4.021
29129SOL     OW92233   9.720   4.537   4.975
29129SOL    HW192234   9.806   4.549   5.025
29129SOL    HW292235   9.678   4.450   5.002
29130SOL     OW92236   9.374   5.288   5.055
29130SOL    HW192237   9.328   5.370   5.021
29130SOL    HW292238   9.472   5.307   5.064
29131SOL     OW92239   9.677   4.824   4.225
29131SOL    HW192240   9.670   4.907   4.169
29131SOL    HW292241   9.681   4.744   4.165
29132SOL     OW92242   9.876   4.261   4.589
29132SOL    HW192243   9.888   4.327   4.515
29132SOL    HW292244   9.922   4.295   4.672
29133SOL     OW92245   9.712   4.475   5.322
29133SOL    HW192246   9.780   4.530   5.275
29133SOL    HW292247   9.752   4.387   5.349
29134SOL     OW92248   9.814   3.774   5.464
29134SOL    HW192249   9.772   3.717   5.394
29134SOL    HW292250   9.748   3.843   5.496
29135SOL     OW92251   9.883   4.594   4.753
29135SOL    HW192252   9.927   4.683   4.744
29135SOL    HW292253   9.820   4.594   4.830
29136SOL     OW92254   9.617   3.937   4.955
29136SOL    HW192255   9.594   3.974   5.045
29136SOL    HW292256   9.587   3.842   4.949
29137SOL     OW92257   9.347   5.034   5.006
29137SOL    HW192258   9.400   4.985   5.074
29137SOL    HW292259   9.369   5.132   5.011
29138SOL     OW92260   9.617   3.787   4.342
29138SOL    HW192261   9.606   3.881   4.375
29138SOL    HW292262   9.612   3.724   4.419
29139SOL     OW92263   9.660   4.622   5.528
29139SOL    HW192264   9.736   4.666   5.576
29139SOL    HW292265   9.695   4.575   5.446
29140SOL     OW92266   9.629   4.534   4.673
29140SOL    HW192267   9.722   4.570   4.678
29140SOL    HW292268   9.623   4.449   4.725
29141SOL     OW92269   9.649   4.233   4.730
29141SOL    HW192270   9.597   4.150   4.713
29141SOL    HW292271   9.726   4.238   4.666
29142SOL     OW92272   9.318   5.050   3.924
29142SOL    HW192273   9.225   5.071   3.893
29142SOL    HW292274   9.328   4.951   3.937
29143SOL     OW92275   9.398   5.525   4.651
29143SOL    HW192276   9.356   5.439   4.624
29143SOL    HW292277   9.492   5.528   4.617
29144SOL     OW92278   9.814   5.292   4.634
29144SOL    HW192279   9.880   5.366   4.643
29144SOL    HW292280   9.858   5.213   4.592
29145SOL     OW92281   9.350   4.268   4.838
29145SOL    HW192282   9.435   4.235   4.797
29145SOL    HW292283   9.363   4.283   4.936
29146SOL     OW92284   9.499   4.244   5.446
29146SOL    HW192285   9.558   4.204   5.376
29146SOL    HW292286   9.441   4.315   5.405
29147SOL     OW92287  10.125   4.296   4.049
29147SOL    HW192288  10.132   4.207   4.003
29147SOL    HW292289  10.031   4.330   4.041
29148SOL     OW92290   9.562   5.288   5.468
29148SOL    HW192291   9.532   5.345   5.544
29148SOL    HW292292   9.555   5.191   5.494
29149SOL     OW92293   9.783   4.224   3.915
29149SOL    HW192294   9.844   4.304   3.919
29149SOL    HW292295   9.688   4.255   3.922
29150SOL     OW92296   9.469   4.861   5.190
29150SOL    HW192297   9.491   4.800   5.266
29150SOL    HW292298   9.479   4.812   5.104
29151SOL     OW92299   9.393   4.982   4.746
29151SOL    HW192300   9.388   4.981   4.846
29151SOL    HW292301   9.310   4.941   4.708
29152SOL     OW92302   9.440   5.518   5.575
29152SOL    HW192303   9.399   5.444   5.628
29152SOL    HW292304   9.504   5.569   5.633
29153SOL     OW92305   9.573   4.050   4.444
29153SOL    HW192306   9.494   4.101   4.410
29153SOL    HW292307   9.564   4.035   4.542
29154SOL     OW92308   9.682   5.012   5.214
29154SOL    HW192309   9.669   5.105   5.180
29154SOL    HW292310   9.598   4.960   5.201
29155SOL     OW92311   9.900   5.211   4.215
29155SOL    HW192312   9.942   5.153   4.145
29155SOL    HW292313   9.856   5.290   4.171
29156SOL     OW92314   9.565   5.072   4.014
29156SOL    HW192315   9.469   5.073   3.987
29156SOL    HW292316   9.577   5.125   4.098
29157SOL     OW92317   9.415   4.737   5.450
29157SOL    HW192318   9.338   4.704   5.504
29157SOL    HW292319   9.500   4.707   5.492
29158SOL     OW92320   9.982   3.927   5.213
29158SOL    HW192321  10.072   3.911   5.173
29158SOL    HW292322   9.990   3.932   5.312
29159SOL     OW92323   9.385   4.069   3.757
29159SOL    HW192324   9.293   4.041   3.728
29159SOL    HW292325   9.416   4.146   3.701
29160SOL     OW92326   9.382   3.890   4.042
29160SOL    HW192327   9.365   3.973   3.988
29160SOL    HW292328   9.472   3.853   4.020
29161SOL     OW92329   9.923   4.566   5.155
29161SOL    HW192330   9.979   4.647   5.138
29161SOL    HW292331   9.982   4.486   5.158
29162SOL     OW92332   9.904   4.469   4.376
29162SOL    HW192333   9.954   4.554   4.357
29162SOL    HW292334   9.816   4.471   4.328
29163SOL     OW92335   9.531   5.038   5.568
29163SOL    HW192336   9.466   4.965   5.547
29163SOL    HW292337   9.535   5.052   5.666
29164SOL     OW92338   9.982   5.115   5.348
29164SOL    HW192339   9.904   5.065   5.386
29164SOL    HW292340   9.979   5.210   5.379
29165SOL     OW92341   9.738   4.148   4.244
29165SOL    HW192342   9.768   4.076   4.182
29165SOL    HW292343   9.699   4.108   4.327
29166SOL     OW92344   9.627   4.271   5.004
29166SOL    HW192345   9.665   4.212   5.076
29166SOL    HW292346   9.667   4.245   4.916
29167SOL     OW92347   9.349   4.801   4.024
29167SOL    HW192348   9.448   4.790   4.015
29167SOL    HW292349   9.309   4.715   4.056
29168SOL     OW92350   9.540   4.352   5.699
29168SOL    HW192351   9.447   4.350   5.736
29168SOL    HW292352   9.541   4.313   5.607
29169SOL     OW92353   9.535   3.999   6.582
29169SOL    HW192354   9.570   3.982   6.674
29169SOL    HW292355   9.447   3.954   6.570
29170SOL     OW92356   9.329   4.092   6.233
29170SOL    HW192357   9.247   4.135   6.272
29170SOL    HW292358   9.301   4.019   6.170
29171SOL     OW92359   9.879   4.999   6.751
29171SOL    HW192360   9.786   4.992   6.714
29171SOL    HW292361   9.890   5.088   6.795
29172SOL     OW92362  10.160   4.522   7.409
29172SOL    HW192363  10.156   4.598   7.474
29172SOL    HW292364  10.182   4.558   7.318
29173SOL     OW92365   9.541   5.437   6.069
29173SOL    HW192366   9.575   5.514   6.123
29173SOL    HW292367   9.585   5.437   5.979
29174SOL     OW92368   9.540   5.158   6.124
29174SOL    HW192369   9.514   5.254   6.124
29174SOL    HW292370   9.469   5.104   6.169
29175SOL     OW92371   9.550   4.815   6.472
29175SOL    HW192372   9.564   4.731   6.524
29175SOL    HW292373   9.495   4.879   6.527
29176SOL     OW92374   9.432   4.367   6.149
29176SOL    HW192375   9.387   4.279   6.166
29176SOL    HW292376   9.431   4.421   6.233
29177SOL     OW92377   9.337   5.320   5.703
29177SOL    HW192378   9.318   5.224   5.724
29177SOL    HW292379   9.304   5.378   5.778
29178SOL     OW92380   9.423   4.461   7.183
29178SOL    HW192381   9.511   4.448   7.228
29178SOL    HW292382   9.410   4.558   7.161
29179SOL     OW92383   9.923   5.089   6.312
29179SOL    HW192384   9.874   5.002   6.321
29179SOL    HW292385   9.900   5.132   6.225
29180SOL     OW92386  10.119   3.728   6.088
29180SOL    HW192387  10.159   3.819   6.079
29180SOL    HW292388  10.019   3.736   6.094
29181SOL     OW92389   9.507   4.700   6.850
29181SOL    HW192390   9.596   4.655   6.836
29181SOL    HW292391   9.434   4.635   6.831
29182SOL     OW92392   9.386   4.535   6.375
29182SOL    HW192393   9.485   4.523   6.384
29182SOL    HW292394   9.362   4.630   6.396
29183SOL     OW92395   9.440   5.545   7.157
29183SOL    HW192396   9.430   5.530   7.256
29183SOL    HW292397   9.354   5.581   7.121
29184SOL     OW92398  10.175   4.072   5.781
29184SOL    HW192399  10.234   4.135   5.732
29184SOL    HW292400  10.194   3.978   5.752
29185SOL     OW92401   9.860   3.920   6.471
29185SOL    HW192402   9.855   3.915   6.571
29185SOL    HW292403   9.862   4.016   6.442
29186SOL     OW92404   9.661   5.525   6.439
29186SOL    HW192405   9.711   5.439   6.445
29186SOL    HW292406   9.726   5.602   6.436
29187SOL     OW92407   9.631   4.667   5.828
29187SOL    HW192408   9.713   4.706   5.786
29187SOL    HW292409   9.604   4.585   5.779
29188SOL     OW92410   9.771   4.990   7.313
29188SOL    HW192411   9.721   4.991   7.227
29188SOL    HW292412   9.708   4.972   7.389
29189SOL     OW92413   9.512   4.009   7.084
29189SOL    HW192414   9.432   4.069   7.071
29189SOL    HW292415   9.502   3.960   7.170
29190SOL     OW92416   9.774   5.467   5.909
29190SOL    HW192417   9.807   5.506   5.995
29190SOL    HW292418   9.850   5.460   5.844
29191SOL     OW92419   9.559   5.509   6.827
29191SOL    HW192420   9.616   5.444   6.877
29191SOL    HW292421   9.543   5.476   6.734
29192SOL     OW92422   9.924   3.846   5.703
29192SOL    HW192423  10.022   3.824   5.710
29192SOL    HW292424   9.893   3.829   5.610
29193SOL     OW92425  10.113   5.126   6.510
29193SOL    HW192426  10.203   5.140   6.468
29193SOL    HW292427  10.042   5.128   6.439
29194SOL     OW92428   9.849   3.788   6.098
29194SOL    HW192429   9.768   3.789   6.156
29194SOL    HW292430   9.852   3.871   6.043
29195SOL     OW92431   9.607   3.759   5.757
29195SOL    HW192432   9.656   3.843   5.736
29195SOL    HW292433   9.669   3.694   5.802
29196SOL     OW92434  10.245   3.960   6.066
29196SOL    HW192435  10.197   4.001   5.988
29196SOL    HW292436  10.344   3.958   6.047
29197SOL     OW92437   9.769   4.876   6.327
29197SOL    HW192438   9.698   4.849   6.392
29197SOL    HW292439   9.743   4.848   6.234
29198SOL     OW92440   9.388   4.280   6.972
29198SOL    HW192441   9.480   4.279   6.931
29198SOL    HW292442   9.382   4.354   7.039
29199SOL     OW92443   9.871   3.946   6.733
29199SOL    HW192444   9.909   3.862   6.770
29199SOL    HW292445   9.783   3.965   6.777
29200SOL     OW92446   9.837   3.980   5.914
29200SOL    HW192447   9.864   3.921   5.839
29200SOL    HW292448   9.837   4.075   5.883
29201SOL     OW92449   9.720   4.537   6.837
29201SOL    HW192450   9.806   4.549   6.887
29201SOL    HW292451   9.678   4.450   6.864
29202SOL     OW92452   9.374   5.288   6.917
29202SOL    HW192453   9.328   5.370   6.883
29202SOL    HW292454   9.472   5.307   6.926
29203SOL     OW92455   9.677   4.824   6.087
29203SOL    HW192456   9.670   4.907   6.031
29203SOL    HW292457   9.681   4.744   6.027
29204SOL     OW92458   9.664   5.234   6.915
29204SOL    HW192459   9.643   5.190   6.828
29204SOL    HW292460   9.761   5.260   6.918
29205SOL     OW92461   9.712   4.475   7.184
29205SOL    HW192462   9.780   4.530   7.137
29205SOL    HW292463   9.752   4.387   7.211
29206SOL     OW92464   9.883   4.594   6.615
29206SOL    HW192465   9.927   4.683   6.606
29206SOL    HW292466   9.820   4.594   6.692
29207SOL     OW92467   9.617   3.937   6.817
29207SOL    HW192468   9.594   3.974   6.907
29207SOL    HW292469   9.587   3.842   6.811
29208SOL     OW92470   9.347   5.034   6.868
29208SOL    HW192471   9.400   4.985   6.936
29208SOL    HW292472   9.369   5.132   6.873
29209SOL     OW92473   9.617   3.787   6.204
29209SOL    HW192474   9.606   3.881   6.237
29209SOL    HW292475   9.612   3.724   6.281
29210SOL     OW92476   9.660   4.622   7.390
29210SOL    HW192477   9.736   4.666   7.438
29210SOL    HW292478   9.695   4.575   7.308
29211SOL     OW92479   9.629   4.534   6.535
29211SOL    HW192480   9.722   4.570   6.540
29211SOL    HW292481   9.623   4.449   6.587
29212SOL     OW92482   9.649   4.233   6.592
29212SOL    HW192483   9.597   4.150   6.575
29212SOL    HW292484   9.726   4.238   6.528
29213SOL     OW92485   9.318   5.050   5.786
29213SOL    HW192486   9.225   5.071   5.755
29213SOL    HW292487   9.328   4.951   5.799
29214SOL     OW92488   9.398   5.525   6.513
29214SOL    HW192489   9.356   5.439   6.486
29214SOL    HW292490   9.492   5.528   6.479
29215SOL     OW92491   9.814   5.292   6.496
29215SOL    HW192492   9.880   5.366   6.505
29215SOL    HW292493   9.858   5.213   6.454
29216SOL     OW92494   9.350   4.268   6.700
29216SOL    HW192495   9.435   4.235   6.659
29216SOL    HW292496   9.363   4.283   6.798
29217SOL     OW92497   9.562   5.288   7.330
29217SOL    HW192498   9.532   5.345   7.406
29217SOL    HW292499   9.555   5.191   7.356
29218SOL     OW92500   9.469   4.861   7.052
29218SOL    HW192501   9.491   4.800   7.128
29218SOL    HW292502   9.479   4.812   6.966
29219SOL     OW92503   9.393   4.982   6.608
29219SOL    HW192504   9.388   4.981   6.708
29219SOL    HW292505   9.310   4.941   6.570
29220SOL     OW92506   9.998   5.386   7.302
29220SOL    HW192507   9.942   5.467   7.311
29220SOL    HW292508  10.050   5.390   7.216
29221SOL     OW92509   9.573   4.050   6.306
29221SOL    HW192510   9.494   4.101   6.272
29221SOL    HW292511   9.564   4.035   6.404
29222SOL     OW92512   9.682   5.012   7.076
29222SOL    HW192513   9.669   5.105   7.042
29222SOL    HW292514   9.598   4.960   7.063
29223SOL     OW92515   9.900   5.211   6.077
29223SOL    HW192516   9.942   5.153   6.007
29223SOL    HW292517   9.856   5.290   6.033
29224SOL     OW92518   9.565   5.072   5.876
29224SOL    HW192519   9.469   5.073   5.849
29224SOL    HW292520   9.577   5.125   5.960
29225SOL     OW92521   9.415   4.737   7.312
29225SOL    HW192522   9.338   4.704   7.366
29225SOL    HW292523   9.500   4.707   7.354
29226SOL     OW92524   9.385   4.069   5.619
29226SOL    HW192525   9.293   4.041   5.590
29226SOL    HW292526   9.416   4.146   5.563
29227SOL     OW92527   9.382   3.890   5.904
29227SOL    HW192528   9.365   3.973   5.850
29227SOL    HW292529   9.472   3.853   5.882
29228SOL     OW92530   9.923   4.566   7.017
29228SOL    HW192531   9.979   4.647   7.000
29228SOL    HW292532   9.982   4.486   7.020
29229SOL     OW92533   9.700   5.465   7.146
29229SOL    HW192534   9.609   5.506   7.144
29229SOL    HW292535   9.693   5.371   7.178
29230SOL     OW92536   9.531   5.038   7.430
29230SOL    HW192537   9.466   4.965   7.409
29230SOL    HW292538   9.535   5.052   7.528
29231SOL     OW92539   9.389   4.964   6.239
29231SOL    HW192540   9.388   4.917   6.327
29231SOL    HW292541   9.471   4.936   6.188
29232SOL     OW92542   9.982   5.115   7.210
29232SOL    HW192543   9.904   5.065   7.248
29232SOL    HW292544   9.979   5.210   7.241
29233SOL     OW92545   9.627   4.271   6.866
29233SOL    HW192546   9.665   4.212   6.938
29233SOL    HW292547   9.667   4.245   6.778
29234SOL     OW92548   9.349   4.801   5.886
29234SOL    HW192549   9.448   4.790   5.877
29234SOL    HW292550   9.309   4.715   5.918
29235SOL     OW92551   9.540   4.352   7.561
29235SOL    HW192552   9.447   4.350   7.598
29235SOL    HW292553   9.541   4.313   7.469
29236SOL     OW92554   9.535   3.999   8.444
29236SOL    HW192555   9.570   3.982   8.536
29236SOL    HW292556   9.447   3.954   8.432
29237SOL     OW92557   9.329   4.092   8.095
29237SOL    HW192558   9.247   4.135   8.134
29237SOL    HW292559   9.301   4.019   8.032
29238SOL     OW92560   9.879   4.999   8.613
29238SOL    HW192561   9.786   4.992   8.576
29238SOL    HW292562   9.890   5.088   8.657
29239SOL     OW92563  10.160   4.522   9.271
29239SOL    HW192564  10.156   4.598   9.336
29239SOL    HW292565  10.182   4.558   9.180
29240SOL     OW92566   9.645   5.159   8.509
29240SOL    HW192567   9.567   5.128   8.456
29240SOL    HW292568   9.703   5.217   8.452
29241SOL     OW92569   9.748   4.116   8.947
29241SOL    HW192570   9.830   4.060   8.956
29241SOL    HW292571   9.667   4.058   8.951
29242SOL     OW92572   9.550   4.815   8.334
29242SOL    HW192573   9.564   4.731   8.386
29242SOL    HW292574   9.495   4.879   8.389
29243SOL     OW92575   9.432   4.367   8.011
29243SOL    HW192576   9.387   4.279   8.028
29243SOL    HW292577   9.431   4.421   8.095
29244SOL     OW92578   9.337   5.320   7.565
29244SOL    HW192579   9.318   5.224   7.586
29244SOL    HW292580   9.304   5.378   7.640
29245SOL     OW92581   9.423   4.461   9.045
29245SOL    HW192582   9.511   4.448   9.090
29245SOL    HW292583   9.410   4.558   9.023
29246SOL     OW92584   9.507   4.700   8.712
29246SOL    HW192585   9.596   4.655   8.698
29246SOL    HW292586   9.434   4.635   8.693
29247SOL     OW92587   9.627   3.975   9.249
29247SOL    HW192588   9.698   4.046   9.255
29247SOL    HW292589   9.539   4.014   9.277
29248SOL     OW92590   9.908   4.453   7.718
29248SOL    HW192591   9.932   4.522   7.650
29248SOL    HW292592   9.830   4.486   7.772
29249SOL     OW92593   9.386   4.535   8.237
29249SOL    HW192594   9.485   4.523   8.246
29249SOL    HW292595   9.362   4.630   8.258
29250SOL     OW92596   9.440   5.545   9.019
29250SOL    HW192597   9.430   5.530   9.118
29250SOL    HW292598   9.354   5.581   8.983
29251SOL     OW92599  10.175   4.072   7.643
29251SOL    HW192600  10.234   4.135   7.594
29251SOL    HW292601  10.194   3.978   7.614
29252SOL     OW92602   9.860   3.920   8.333
29252SOL    HW192603   9.855   3.915   8.433
29252SOL    HW292604   9.862   4.016   8.304
29253SOL     OW92605   9.661   5.525   8.301
29253SOL    HW192606   9.711   5.439   8.307
29253SOL    HW292607   9.726   5.602   8.298
29254SOL     OW92608   9.631   4.667   7.690
29254SOL    HW192609   9.713   4.706   7.648
29254SOL    HW292610   9.604   4.585   7.641
29255SOL     OW92611   9.771   4.990   9.175
29255SOL    HW192612   9.721   4.991   9.089
29255SOL    HW292613   9.708   4.972   9.251
29256SOL     OW92614   9.512   4.009   8.946
29256SOL    HW192615   9.432   4.069   8.933
29256SOL    HW292616   9.502   3.960   9.032
29257SOL     OW92617   9.559   5.509   8.689
29257SOL    HW192618   9.616   5.444   8.739
29257SOL    HW292619   9.543   5.476   8.596
29258SOL     OW92620   9.692   4.424   7.928
29258SOL    HW192621   9.737   4.334   7.925
29258SOL    HW292622   9.598   4.413   7.961
29259SOL     OW92623  10.113   5.126   8.372
29259SOL    HW192624  10.203   5.140   8.330
29259SOL    HW292625  10.042   5.128   8.301
29260SOL     OW92626   9.849   3.788   7.960
29260SOL    HW192627   9.768   3.789   8.018
29260SOL    HW292628   9.852   3.871   7.905
29261SOL     OW92629   9.769   4.876   8.189
29261SOL    HW192630   9.698   4.849   8.254
29261SOL    HW292631   9.743   4.848   8.096
29262SOL     OW92632   9.388   4.280   8.834
29262SOL    HW192633   9.480   4.279   8.793
29262SOL    HW292634   9.382   4.354   8.901
29263SOL     OW92635   9.871   3.946   8.595
29263SOL    HW192636   9.909   3.862   8.632
29263SOL    HW292637   9.783   3.965   8.639
29264SOL     OW92638   9.837   3.980   7.776
29264SOL    HW192639   9.864   3.921   7.701
29264SOL    HW292640   9.837   4.075   7.745
29265SOL     OW92641   9.720   4.537   8.699
29265SOL    HW192642   9.806   4.549   8.749
29265SOL    HW292643   9.678   4.450   8.726
29266SOL     OW92644   9.374   5.288   8.779
29266SOL    HW192645   9.328   5.370   8.745
29266SOL    HW292646   9.472   5.307   8.788
29267SOL     OW92647   9.876   4.261   8.313
29267SOL    HW192648   9.888   4.327   8.239
29267SOL    HW292649   9.922   4.295   8.396
29268SOL     OW92650   9.664   5.234   8.777
29268SOL    HW192651   9.643   5.190   8.690
29268SOL    HW292652   9.761   5.260   8.780
29269SOL     OW92653   9.712   4.475   9.046
29269SOL    HW192654   9.780   4.530   8.999
29269SOL    HW292655   9.752   4.387   9.073
29270SOL     OW92656   9.814   3.774   9.188
29270SOL    HW192657   9.772   3.717   9.118
29270SOL    HW292658   9.748   3.843   9.220
29271SOL     OW92659   9.883   4.594   8.477
29271SOL    HW192660   9.927   4.683   8.468
29271SOL    HW292661   9.820   4.594   8.554
29272SOL     OW92662   9.617   3.937   8.679
29272SOL    HW192663   9.594   3.974   8.769
29272SOL    HW292664   9.587   3.842   8.673
29273SOL     OW92665   9.347   5.034   8.730
29273SOL    HW192666   9.400   4.985   8.798
29273SOL    HW292667   9.369   5.132   8.735
29274SOL     OW92668   9.617   3.787   8.066
29274SOL    HW192669   9.606   3.881   8.099
29274SOL    HW292670   9.612   3.724   8.143
29275SOL     OW92671   9.660   4.622   9.252
29275SOL    HW192672   9.736   4.666   9.300
29275SOL    HW292673   9.695   4.575   9.170
29276SOL     OW92674   9.629   4.534   8.397
29276SOL    HW192675   9.722   4.570   8.402
29276SOL    HW292676   9.623   4.449   8.449
29277SOL     OW92677   9.649   4.233   8.454
29277SOL    HW192678   9.597   4.150   8.437
29277SOL    HW292679   9.726   4.238   8.390
29278SOL     OW92680   9.318   5.050   7.648
29278SOL    HW192681   9.225   5.071   7.617
29278SOL    HW292682   9.328   4.951   7.661
29279SOL     OW92683   9.398   5.525   8.375
29279SOL    HW192684   9.356   5.439   8.348
29279SOL    HW292685   9.492   5.528   8.341
29280SOL     OW92686   9.814   5.292   8.358
29280SOL    HW192687   9.880   5.366   8.367
29280SOL    HW292688   9.858   5.213   8.316
29281SOL     OW92689   9.350   4.268   8.562
29281SOL    HW192690   9.435   4.235   8.521
29281SOL    HW292691   9.363   4.283   8.660
29282SOL     OW92692   9.499   4.244   9.170
29282SOL    HW192693   9.558   4.204   9.100
29282SOL    HW292694   9.441   4.315   9.129
29283SOL     OW92695  10.125   4.296   7.773
29283SOL    HW192696  10.132   4.207   7.727
29283SOL    HW292697  10.031   4.330   7.765
29284SOL     OW92698   9.562   5.288   9.192
29284SOL    HW192699   9.532   5.345   9.268
29284SOL    HW292700   9.555   5.191   9.218
29285SOL     OW92701   9.783   4.224   7.639
29285SOL    HW192702   9.844   4.304   7.643
29285SOL    HW292703   9.688   4.255   7.646
29286SOL     OW92704   9.469   4.861   8.914
29286SOL    HW192705   9.491   4.800   8.990
29286SOL    HW292706   9.479   4.812   8.828
29287SOL     OW92707   9.393   4.982   8.470
29287SOL    HW192708   9.388   4.981   8.570
29287SOL    HW292709   9.310   4.941   8.432
29288SOL     OW92710   9.998   5.386   9.164
29288SOL    HW192711   9.942   5.467   9.173
29288SOL    HW292712  10.050   5.390   9.078
29289SOL     OW92713   9.440   5.518   9.299
29289SOL    HW192714   9.399   5.444   9.352
29289SOL    HW292715   9.504   5.569   9.357
29290SOL     OW92716   9.573   4.050   8.168
29290SOL    HW192717   9.494   4.101   8.134
29290SOL    HW292718   9.564   4.035   8.266
29291SOL     OW92719   9.682   5.012   8.938
29291SOL    HW192720   9.669   5.105   8.904
29291SOL    HW292721   9.598   4.960   8.925
29292SOL     OW92722   9.415   4.737   9.174
29292SOL    HW192723   9.338   4.704   9.228
29292SOL    HW292724   9.500   4.707   9.216
29293SOL     OW92725   9.982   3.927   8.937
29293SOL    HW192726  10.072   3.911   8.897
29293SOL    HW292727   9.990   3.932   9.036
29294SOL     OW92728   9.382   3.890   7.766
29294SOL    HW192729   9.365   3.973   7.712
29294SOL    HW292730   9.472   3.853   7.744
29295SOL     OW92731   9.923   4.566   8.879
29295SOL    HW192732   9.979   4.647   8.862
29295SOL    HW292733   9.982   4.486   8.882
29296SOL     OW92734   9.700   5.465   9.008
29296SOL    HW192735   9.609   5.506   9.006
29296SOL    HW292736   9.693   5.371   9.040
29297SOL     OW92737   9.904   4.469   8.100
29297SOL    HW192738   9.954   4.554   8.081
29297SOL    HW292739   9.816   4.471   8.052
29298SOL     OW92740   9.531   5.038   9.292
29298SOL    HW192741   9.466   4.965   9.271
29298SOL    HW292742   9.535   5.052   9.390
29299SOL     OW92743   9.389   4.964   8.101
29299SOL    HW192744   9.388   4.917   8.189
29299SOL    HW292745   9.471   4.936   8.050
29300SOL     OW92746   9.982   5.115   9.072
29300SOL    HW192747   9.904   5.065   9.110
29300SOL    HW292748   9.979   5.210   9.103
29301SOL     OW92749   9.738   4.148   7.968
29301SOL    HW192750   9.768   4.076   7.906
29301SOL    HW292751   9.699   4.108   8.051
29302SOL     OW92752   9.627   4.271   8.728
29302SOL    HW192753   9.665   4.212   8.800
29302SOL    HW292754   9.667   4.245   8.640
29303SOL     OW92755   9.349   4.801   7.748
29303SOL    HW192756   9.448   4.790   7.739
29303SOL    HW292757   9.309   4.715   7.780
29304SOL     OW92758   9.540   4.352   9.423
29304SOL    HW192759   9.447   4.350   9.460
29304SOL    HW292760   9.541   4.313   9.331
29305SOL     OW92761   9.541   5.437   9.793
29305SOL    HW192762   9.575   5.514   9.847
29305SOL    HW292763   9.585   5.437   9.703
29306SOL     OW92764   9.540   5.158   9.848
29306SOL    HW192765   9.514   5.254   9.848
29306SOL    HW292766   9.469   5.104   9.893
29307SOL     OW92767   9.432   4.367   9.873
29307SOL    HW192768   9.387   4.279   9.890
29307SOL    HW292769   9.431   4.421   9.957
29308SOL     OW92770   9.337   5.320   9.427
29308SOL    HW192771   9.318   5.224   9.448
29308SOL    HW292772   9.304   5.378   9.502
29309SOL     OW92773  10.119   3.728   9.812
29309SOL    HW192774  10.159   3.819   9.803
29309SOL    HW292775  10.019   3.736   9.818
29310SOL     OW92776   9.908   4.453   9.580
29310SOL    HW192777   9.932   4.522   9.512
29310SOL    HW292778   9.830   4.486   9.634
29311SOL     OW92779  10.175   4.072   9.505
29311SOL    HW192780  10.234   4.135   9.456
29311SOL    HW292781  10.194   3.978   9.476
29312SOL     OW92782   9.661   5.525  10.163
29312SOL    HW192783   9.711   5.439  10.169
29312SOL    HW292784   9.726   5.602  10.160
29313SOL     OW92785   9.631   4.667   9.552
29313SOL    HW192786   9.713   4.706   9.510
29313SOL    HW292787   9.604   4.585   9.503
29314SOL     OW92788   9.774   5.467   9.633
29314SOL    HW192789   9.807   5.506   9.719
29314SOL    HW292790   9.850   5.460   9.568
29315SOL     OW92791   9.692   4.424   9.790
29315SOL    HW192792   9.737   4.334   9.787
29315SOL    HW292793   9.598   4.413   9.823
29316SOL     OW92794   9.924   3.846   9.427
29316SOL    HW192795  10.022   3.824   9.434
29316SOL    HW292796   9.893   3.829   9.334
29317SOL     OW92797   9.849   3.788   9.822
29317SOL    HW192798   9.768   3.789   9.880
29317SOL    HW292799   9.852   3.871   9.767
29318SOL     OW92800   9.607   3.759   9.481
29318SOL    HW192801   9.656   3.843   9.460
29318SOL    HW292802   9.669   3.694   9.526
29319SOL     OW92803  10.245   3.960   9.790
29319SOL    HW192804  10.197   4.001   9.712
29319SOL    HW292805  10.344   3.958   9.771
29320SOL     OW92806   9.769   4.876  10.051
29320SOL    HW192807   9.698   4.849  10.116
29320SOL    HW292808   9.743   4.848   9.958
29321SOL     OW92809   9.837   3.980   9.638
29321SOL    HW192810   9.864   3.921   9.563
29321SOL    HW292811   9.837   4.075   9.607
29322SOL     OW92812   9.677   4.824   9.811
29322SOL    HW192813   9.670   4.907   9.755
29322SOL    HW292814   9.681   4.744   9.751
29323SOL     OW92815   9.617   3.787   9.928
29323SOL    HW192816   9.606   3.881   9.961
29323SOL    HW292817   9.612   3.724  10.005
29324SOL     OW92818   9.318   5.050   9.510
29324SOL    HW192819   9.225   5.071   9.479
29324SOL    HW292820   9.328   4.951   9.523
29325SOL     OW92821  10.125   4.296   9.635
29325SOL    HW192822  10.132   4.207   9.589
29325SOL    HW292823  10.031   4.330   9.627
29326SOL     OW92824   9.783   4.224   9.501
29326SOL    HW192825   9.844   4.304   9.505
29326SOL    HW292826   9.688   4.255   9.508
29327SOL     OW92827   9.900   5.211   9.801
29327SOL    HW192828   9.942   5.153   9.731
29327SOL    HW292829   9.856   5.290   9.757
29328SOL     OW92830   9.565   5.072   9.600
29328SOL    HW192831   9.469   5.073   9.573
29328SOL    HW292832   9.577   5.125   9.684
29329SOL     OW92833   9.385   4.069   9.343
29329SOL    HW192834   9.293   4.041   9.314
29329SOL    HW292835   9.416   4.146   9.287
29330SOL     OW92836   9.382   3.890   9.628
29330SOL    HW192837   9.365   3.973   9.574
29330SOL    HW292838   9.472   3.853   9.606
29331SOL     OW92839   9.904   4.469   9.962
29331SOL    HW192840   9.954   4.554   9.943
29331SOL    HW292841   9.816   4.471   9.914
29332SOL     OW92842   9.389   4.964   9.963
29332SOL    HW192843   9.388   4.917  10.051
29332SOL    HW292844   9.471   4.936   9.912
29333SOL     OW92845   9.738   4.148   9.830
29333SOL    HW192846   9.768   4.076   9.768
29333SOL    HW292847   9.699   4.108   9.913
29334SOL     OW92848   9.349   4.801   9.610
29334SOL    HW192849   9.448   4.790   9.601
29334SOL    HW292850   9.309   4.715   9.642
29335SOL     OW92851   9.540   6.214   0.113
29335SOL    HW192852   9.447   6.212   0.150
29335SOL    HW292853   9.541   6.175   0.021
29336SOL     OW92854   9.329   5.954   0.647
29336SOL    HW192855   9.247   5.997   0.686
29336SOL    HW292856   9.301   5.881   0.584
29337SOL     OW92857  10.160   6.384   1.823
29337SOL    HW192858  10.156   6.460   1.888
29337SOL    HW292859  10.182   6.420   1.732
29338SOL     OW92860   9.748   5.978   1.499
29338SOL    HW192861   9.830   5.922   1.508
29338SOL    HW292862   9.667   5.920   1.503
29339SOL     OW92863   9.541   7.299   0.483
29339SOL    HW192864   9.575   7.376   0.537
29339SOL    HW292865   9.585   7.299   0.393
29340SOL     OW92866   9.432   6.229   0.563
29340SOL    HW192867   9.387   6.141   0.580
29340SOL    HW292868   9.431   6.283   0.647
29341SOL     OW92869   9.337   7.182   0.117
29341SOL    HW192870   9.318   7.086   0.138
29341SOL    HW292871   9.304   7.240   0.192
29342SOL     OW92872   9.423   6.323   1.597
29342SOL    HW192873   9.511   6.310   1.642
29342SOL    HW292874   9.410   6.420   1.575
29343SOL     OW92875   9.923   6.951   0.726
29343SOL    HW192876   9.874   6.864   0.735
29343SOL    HW292877   9.900   6.994   0.639
29344SOL     OW92878  10.119   5.590   0.502
29344SOL    HW192879  10.159   5.681   0.493
29344SOL    HW292880  10.019   5.598   0.508
29345SOL     OW92881   9.627   5.837   1.801
29345SOL    HW192882   9.698   5.908   1.807
29345SOL    HW292883   9.539   5.876   1.829
29346SOL     OW92884   9.386   6.397   0.789
29346SOL    HW192885   9.485   6.385   0.798
29346SOL    HW292886   9.362   6.492   0.810
29347SOL     OW92887   9.440   7.407   1.571
29347SOL    HW192888   9.430   7.392   1.670
29347SOL    HW292889   9.354   7.443   1.535
29348SOL     OW92890  10.175   5.934   0.195
29348SOL    HW192891  10.234   5.997   0.146
29348SOL    HW292892  10.194   5.840   0.166
29349SOL     OW92893   9.860   5.782   0.885
29349SOL    HW192894   9.855   5.777   0.985
29349SOL    HW292895   9.862   5.878   0.856
29350SOL     OW92896   9.661   7.387   0.853
29350SOL    HW192897   9.711   7.301   0.859
29350SOL    HW292898   9.726   7.464   0.850
29351SOL     OW92899   9.631   6.529   0.242
29351SOL    HW192900   9.713   6.568   0.200
29351SOL    HW292901   9.604   6.447   0.193
29352SOL     OW92902   9.771   6.852   1.727
29352SOL    HW192903   9.721   6.853   1.641
29352SOL    HW292904   9.708   6.834   1.803
29353SOL     OW92905   9.512   5.871   1.498
29353SOL    HW192906   9.432   5.931   1.485
29353SOL    HW292907   9.502   5.822   1.584
29354SOL     OW92908   9.774   7.329   0.323
29354SOL    HW192909   9.807   7.368   0.409
29354SOL    HW292910   9.850   7.322   0.258
29355SOL     OW92911   9.559   7.371   1.241
29355SOL    HW192912   9.616   7.306   1.291
29355SOL    HW292913   9.543   7.338   1.148
29356SOL     OW92914   9.692   6.286   0.480
29356SOL    HW192915   9.737   6.196   0.477
29356SOL    HW292916   9.598   6.275   0.513
29357SOL     OW92917   9.924   5.708   0.117
29357SOL    HW192918  10.022   5.686   0.124
29357SOL    HW292919   9.893   5.691   0.024
29358SOL     OW92920  10.113   6.988   0.924
29358SOL    HW192921  10.203   7.002   0.882
29358SOL    HW292922  10.042   6.990   0.853
29359SOL     OW92923   9.849   5.650   0.512
29359SOL    HW192924   9.768   5.651   0.570
29359SOL    HW292925   9.852   5.733   0.457
29360SOL     OW92926  10.245   5.822   0.480
29360SOL    HW192927  10.197   5.863   0.402
29360SOL    HW292928  10.344   5.820   0.461
29361SOL     OW92929   9.388   6.142   1.386
29361SOL    HW192930   9.480   6.141   1.345
29361SOL    HW292931   9.382   6.216   1.453
29362SOL     OW92932   9.871   5.808   1.147
29362SOL    HW192933   9.909   5.724   1.184
29362SOL    HW292934   9.783   5.827   1.191
29363SOL     OW92935   9.837   5.842   0.328
29363SOL    HW192936   9.864   5.783   0.253
29363SOL    HW292937   9.837   5.937   0.297
29364SOL     OW92938   9.374   7.150   1.331
29364SOL    HW192939   9.328   7.232   1.297
29364SOL    HW292940   9.472   7.169   1.340
29365SOL     OW92941   9.876   6.123   0.865
29365SOL    HW192942   9.888   6.189   0.791
29365SOL    HW292943   9.922   6.157   0.948
29366SOL     OW92944   9.664   7.096   1.329
29366SOL    HW192945   9.643   7.052   1.242
29366SOL    HW292946   9.761   7.122   1.332
29367SOL     OW92947   9.814   5.636   1.740
29367SOL    HW192948   9.772   5.579   1.670
29367SOL    HW292949   9.748   5.705   1.772
29368SOL     OW92950   9.617   5.799   1.231
29368SOL    HW192951   9.594   5.836   1.321
29368SOL    HW292952   9.587   5.704   1.225
29369SOL     OW92953   9.347   6.896   1.282
29369SOL    HW192954   9.400   6.847   1.350
29369SOL    HW292955   9.369   6.994   1.287
29370SOL     OW92956   9.617   5.649   0.618
29370SOL    HW192957   9.606   5.743   0.651
29370SOL    HW292958   9.612   5.586   0.695
29371SOL     OW92959   9.660   6.484   1.804
29371SOL    HW192960   9.736   6.528   1.852
29371SOL    HW292961   9.695   6.437   1.722
29372SOL     OW92962   9.649   6.095   1.006
29372SOL    HW192963   9.597   6.012   0.989
29372SOL    HW292964   9.726   6.100   0.942
29373SOL     OW92965   9.318   6.912   0.200
29373SOL    HW192966   9.225   6.933   0.169
29373SOL    HW292967   9.328   6.813   0.213
29374SOL     OW92968   9.398   7.387   0.927
29374SOL    HW192969   9.356   7.301   0.900
29374SOL    HW292970   9.492   7.390   0.893
29375SOL     OW92971   9.814   7.154   0.910
29375SOL    HW192972   9.880   7.228   0.919
29375SOL    HW292973   9.858   7.075   0.868
29376SOL     OW92974   9.350   6.130   1.114
29376SOL    HW192975   9.435   6.097   1.073
29376SOL    HW292976   9.363   6.145   1.212
29377SOL     OW92977   9.499   6.106   1.722
29377SOL    HW192978   9.558   6.066   1.652
29377SOL    HW292979   9.441   6.177   1.681
29378SOL     OW92980  10.125   6.158   0.325
29378SOL    HW192981  10.132   6.069   0.279
29378SOL    HW292982  10.031   6.192   0.317
29379SOL     OW92983   9.562   7.150   1.744
29379SOL    HW192984   9.532   7.207   1.820
29379SOL    HW292985   9.555   7.053   1.770
29380SOL     OW92986   9.783   6.086   0.191
29380SOL    HW192987   9.844   6.166   0.195
29380SOL    HW292988   9.688   6.117   0.198
29381SOL     OW92989   9.469   6.723   1.466
29381SOL    HW192990   9.491   6.662   1.542
29381SOL    HW292991   9.479   6.674   1.380
29382SOL     OW92992   9.393   6.844   1.022
29382SOL    HW192993   9.388   6.843   1.122
29382SOL    HW292994   9.310   6.803   0.984
29383SOL     OW92995   9.998   7.248   1.716
29383SOL    HW192996   9.942   7.329   1.725
29383SOL    HW292997  10.050   7.252   1.630
29384SOL     OW92998   9.440   7.380   1.851
29384SOL    HW192999   9.399   7.306   1.904
29384SOL    HW293000   9.504   7.431   1.909
29385SOL     OW93001   9.573   5.912   0.720
29385SOL    HW193002   9.494   5.963   0.686
29385SOL    HW293003   9.564   5.897   0.818
29386SOL     OW93004   9.682   6.874   1.490
29386SOL    HW193005   9.669   6.967   1.456
29386SOL    HW293006   9.598   6.822   1.477
29387SOL     OW93007   9.900   7.073   0.491
29387SOL    HW193008   9.942   7.015   0.421
29387SOL    HW293009   9.856   7.152   0.447
29388SOL     OW93010   9.565   6.934   0.290
29388SOL    HW193011   9.469   6.935   0.263
29388SOL    HW293012   9.577   6.987   0.374
29389SOL     OW93013   9.415   6.599   1.726
29389SOL    HW193014   9.338   6.566   1.780
29389SOL    HW293015   9.500   6.569   1.768
29390SOL     OW93016   9.385   5.931   0.033
29390SOL    HW193017   9.293   5.903   0.004
29390SOL    HW293018   9.416   6.008  -0.023
29391SOL     OW93019   9.382   5.752   0.318
29391SOL    HW193020   9.365   5.835   0.264
29391SOL    HW293021   9.472   5.715   0.296
29392SOL     OW93022   9.923   6.428   1.431
29392SOL    HW193023   9.979   6.509   1.414
29392SOL    HW293024   9.982   6.348   1.434
29393SOL     OW93025   9.700   7.327   1.560
29393SOL    HW193026   9.609   7.368   1.558
29393SOL    HW293027   9.693   7.233   1.592
29394SOL     OW93028   9.904   6.331   0.652
29394SOL    HW193029   9.954   6.416   0.633
29394SOL    HW293030   9.816   6.333   0.604
29395SOL     OW93031   9.531   6.900   1.844
29395SOL    HW193032   9.466   6.827   1.823
29395SOL    HW293033   9.535   6.914   1.942
29396SOL     OW93034   9.982   6.977   1.624
29396SOL    HW193035   9.904   6.927   1.662
29396SOL    HW293036   9.979   7.072   1.655
29397SOL     OW93037   9.738   6.010   0.520
29397SOL    HW193038   9.768   5.938   0.458
29397SOL    HW293039   9.699   5.970   0.603
29398SOL     OW93040   9.627   6.133   1.280
29398SOL    HW193041   9.665   6.074   1.352
29398SOL    HW293042   9.667   6.107   1.192
29399SOL     OW93043   9.349   6.663   0.300
29399SOL    HW193044   9.448   6.652   0.291
29399SOL    HW293045   9.309   6.577   0.332
29400SOL     OW93046   9.540   6.214   1.975
29400SOL    HW193047   9.447   6.212   2.012
29400SOL    HW293048   9.541   6.175   1.883
29401SOL     OW93049   9.329   5.954   2.509
29401SOL    HW193050   9.247   5.997   2.548
29401SOL    HW293051   9.301   5.881   2.446
29402SOL     OW93052   9.879   6.861   3.027
29402SOL    HW193053   9.786   6.854   2.990
29402SOL    HW293054   9.890   6.950   3.071
29403SOL     OW93055  10.160   6.384   3.685
29403SOL    HW193056  10.156   6.460   3.750
29403SOL    HW293057  10.182   6.420   3.594
29404SOL     OW93058   9.645   7.021   2.923
29404SOL    HW193059   9.567   6.990   2.870
29404SOL    HW293060   9.703   7.079   2.866
29405SOL     OW93061   9.748   5.978   3.361
29405SOL    HW193062   9.830   5.922   3.370
29405SOL    HW293063   9.667   5.920   3.365
29406SOL     OW93064   9.541   7.299   2.345
29406SOL    HW193065   9.575   7.376   2.399
29406SOL    HW293066   9.585   7.299   2.255
29407SOL     OW93067   9.540   7.020   2.400
29407SOL    HW193068   9.514   7.116   2.400
29407SOL    HW293069   9.469   6.966   2.445
29408SOL     OW93070   9.550   6.677   2.748
29408SOL    HW193071   9.564   6.593   2.800
29408SOL    HW293072   9.495   6.741   2.803
29409SOL     OW93073   9.432   6.229   2.425
29409SOL    HW193074   9.387   6.141   2.442
29409SOL    HW293075   9.431   6.283   2.509
29410SOL     OW93076   9.337   7.182   1.979
29410SOL    HW193077   9.318   7.086   2.000
29410SOL    HW293078   9.304   7.240   2.054
29411SOL     OW93079   9.423   6.323   3.459
29411SOL    HW193080   9.511   6.310   3.504
29411SOL    HW293081   9.410   6.420   3.437
29412SOL     OW93082   9.507   6.562   3.126
29412SOL    HW193083   9.596   6.517   3.112
29412SOL    HW293084   9.434   6.497   3.107
29413SOL     OW93085   9.627   5.837   3.663
29413SOL    HW193086   9.698   5.908   3.669
29413SOL    HW293087   9.539   5.876   3.691
29414SOL     OW93088   9.908   6.315   2.132
29414SOL    HW193089   9.932   6.384   2.064
29414SOL    HW293090   9.830   6.348   2.186
29415SOL     OW93091   9.386   6.397   2.651
29415SOL    HW193092   9.485   6.385   2.660
29415SOL    HW293093   9.362   6.492   2.672
29416SOL     OW93094   9.440   7.407   3.433
29416SOL    HW193095   9.430   7.392   3.532
29416SOL    HW293096   9.354   7.443   3.397
29417SOL     OW93097   9.661   7.387   2.715
29417SOL    HW193098   9.711   7.301   2.721
29417SOL    HW293099   9.726   7.464   2.712
29418SOL     OW93100   9.631   6.529   2.104
29418SOL    HW193101   9.713   6.568   2.062
29418SOL    HW293102   9.604   6.447   2.055
29419SOL     OW93103   9.771   6.852   3.589
29419SOL    HW193104   9.721   6.853   3.503
29419SOL    HW293105   9.708   6.834   3.665
29420SOL     OW93106   9.512   5.871   3.360
29420SOL    HW193107   9.432   5.931   3.347
29420SOL    HW293108   9.502   5.822   3.446
29421SOL     OW93109   9.774   7.329   2.185
29421SOL    HW193110   9.807   7.368   2.271
29421SOL    HW293111   9.850   7.322   2.120
29422SOL     OW93112   9.559   7.371   3.103
29422SOL    HW193113   9.616   7.306   3.153
29422SOL    HW293114   9.543   7.338   3.010
29423SOL     OW93115   9.692   6.286   2.342
29423SOL    HW193116   9.737   6.196   2.339
29423SOL    HW293117   9.598   6.275   2.375
29424SOL     OW93118   9.924   5.708   1.979
29424SOL    HW193119  10.022   5.686   1.986
29424SOL    HW293120   9.893   5.691   1.886
29425SOL     OW93121   9.607   5.621   2.033
29425SOL    HW193122   9.656   5.705   2.012
29425SOL    HW293123   9.669   5.556   2.078
29426SOL     OW93124   9.769   6.738   2.603
29426SOL    HW193125   9.698   6.711   2.668
29426SOL    HW293126   9.743   6.710   2.510
29427SOL     OW93127   9.388   6.142   3.248
29427SOL    HW193128   9.480   6.141   3.207
29427SOL    HW293129   9.382   6.216   3.315
29428SOL     OW93130   9.871   5.808   3.009
29428SOL    HW193131   9.909   5.724   3.046
29428SOL    HW293132   9.783   5.827   3.053
29429SOL     OW93133   9.720   6.399   3.113
29429SOL    HW193134   9.806   6.411   3.163
29429SOL    HW293135   9.678   6.312   3.140
29430SOL     OW93136   9.374   7.150   3.193
29430SOL    HW193137   9.328   7.232   3.159
29430SOL    HW293138   9.472   7.169   3.202
29431SOL     OW93139   9.677   6.686   2.363
29431SOL    HW193140   9.670   6.769   2.307
29431SOL    HW293141   9.681   6.606   2.303
29432SOL     OW93142   9.876   6.123   2.727
29432SOL    HW193143   9.888   6.189   2.653
29432SOL    HW293144   9.922   6.157   2.810
29433SOL     OW93145   9.664   7.096   3.191
29433SOL    HW193146   9.643   7.052   3.104
29433SOL    HW293147   9.761   7.122   3.194
29434SOL     OW93148   9.712   6.337   3.460
29434SOL    HW193149   9.780   6.392   3.413
29434SOL    HW293150   9.752   6.249   3.487
29435SOL     OW93151   9.814   5.636   3.602
29435SOL    HW193152   9.772   5.579   3.532
29435SOL    HW293153   9.748   5.705   3.634
29436SOL     OW93154   9.883   6.456   2.891
29436SOL    HW193155   9.927   6.545   2.882
29436SOL    HW293156   9.820   6.456   2.968
29437SOL     OW93157   9.347   6.896   3.144
29437SOL    HW193158   9.400   6.847   3.212
29437SOL    HW293159   9.369   6.994   3.149
29438SOL     OW93160   9.629   6.396   2.811
29438SOL    HW193161   9.722   6.432   2.816
29438SOL    HW293162   9.623   6.311   2.863
29439SOL     OW93163   9.649   6.095   2.868
29439SOL    HW193164   9.597   6.012   2.851
29439SOL    HW293165   9.726   6.100   2.804
29440SOL     OW93166   9.398   7.387   2.789
29440SOL    HW193167   9.356   7.301   2.762
29440SOL    HW293168   9.492   7.390   2.755
29441SOL     OW93169   9.814   7.154   2.772
29441SOL    HW193170   9.880   7.228   2.781
29441SOL    HW293171   9.858   7.075   2.730
29442SOL     OW93172   9.350   6.130   2.976
29442SOL    HW193173   9.435   6.097   2.935
29442SOL    HW293174   9.363   6.145   3.074
29443SOL     OW93175   9.499   6.106   3.584
29443SOL    HW193176   9.558   6.066   3.514
29443SOL    HW293177   9.441   6.177   3.543
29444SOL     OW93178   9.783   6.086   2.053
29444SOL    HW193179   9.844   6.166   2.057
29444SOL    HW293180   9.688   6.117   2.060
29445SOL     OW93181   9.469   6.723   3.328
29445SOL    HW193182   9.491   6.662   3.404
29445SOL    HW293183   9.479   6.674   3.242
29446SOL     OW93184   9.393   6.844   2.884
29446SOL    HW193185   9.388   6.843   2.984
29446SOL    HW293186   9.310   6.803   2.846
29447SOL     OW93187   9.998   7.248   3.578
29447SOL    HW193188   9.942   7.329   3.587
29447SOL    HW293189  10.050   7.252   3.492
29448SOL     OW93190   9.682   6.874   3.352
29448SOL    HW193191   9.669   6.967   3.318
29448SOL    HW293192   9.598   6.822   3.339
29449SOL     OW93193   9.900   7.073   2.353
29449SOL    HW193194   9.942   7.015   2.283
29449SOL    HW293195   9.856   7.152   2.309
29450SOL     OW93196   9.565   6.934   2.152
29450SOL    HW193197   9.469   6.935   2.125
29450SOL    HW293198   9.577   6.987   2.236
29451SOL     OW93199   9.415   6.599   3.588
29451SOL    HW193200   9.338   6.566   3.642
29451SOL    HW293201   9.500   6.569   3.630
29452SOL     OW93202   9.982   5.789   3.351
29452SOL    HW193203  10.072   5.773   3.311
29452SOL    HW293204   9.990   5.794   3.450
29453SOL     OW93205   9.385   5.931   1.895
29453SOL    HW193206   9.293   5.903   1.866
29453SOL    HW293207   9.416   6.008   1.839
29454SOL     OW93208   9.382   5.752   2.180
29454SOL    HW193209   9.365   5.835   2.126
29454SOL    HW293210   9.472   5.715   2.158
29455SOL     OW93211   9.923   6.428   3.293
29455SOL    HW193212   9.979   6.509   3.276
29455SOL    HW293213   9.982   6.348   3.296
29456SOL     OW93214   9.700   7.327   3.422
29456SOL    HW193215   9.609   7.368   3.420
29456SOL    HW293216   9.693   7.233   3.454
29457SOL     OW93217   9.904   6.331   2.514
29457SOL    HW193218   9.954   6.416   2.495
29457SOL    HW293219   9.816   6.333   2.466
29458SOL     OW93220   9.531   6.900   3.706
29458SOL    HW193221   9.466   6.827   3.685
29458SOL    HW293222   9.535   6.914   3.804
29459SOL     OW93223   9.389   6.826   2.515
29459SOL    HW193224   9.388   6.779   2.603
29459SOL    HW293225   9.471   6.798   2.464
29460SOL     OW93226   9.982   6.977   3.486
29460SOL    HW193227   9.904   6.927   3.524
29460SOL    HW293228   9.979   7.072   3.517
29461SOL     OW93229   9.627   6.133   3.142
29461SOL    HW193230   9.665   6.074   3.214
29461SOL    HW293231   9.667   6.107   3.054
29462SOL     OW93232   9.349   6.663   2.162
29462SOL    HW193233   9.448   6.652   2.153
29462SOL    HW293234   9.309   6.577   2.194
29463SOL     OW93235   9.540   6.214   3.837
29463SOL    HW193236   9.447   6.212   3.874
29463SOL    HW293237   9.541   6.175   3.745
29464SOL     OW93238   9.535   5.861   4.720
29464SOL    HW193239   9.570   5.844   4.812
29464SOL    HW293240   9.447   5.816   4.708
29465SOL     OW93241   9.329   5.954   4.371
29465SOL    HW193242   9.247   5.997   4.410
29465SOL    HW293243   9.301   5.881   4.308
29466SOL     OW93244   9.879   6.861   4.889
29466SOL    HW193245   9.786   6.854   4.852
29466SOL    HW293246   9.890   6.950   4.933
29467SOL     OW93247  10.160   6.384   5.547
29467SOL    HW193248  10.156   6.460   5.612
29467SOL    HW293249  10.182   6.420   5.456
29468SOL     OW93250   9.645   7.021   4.785
29468SOL    HW193251   9.567   6.990   4.732
29468SOL    HW293252   9.703   7.079   4.728
29469SOL     OW93253   9.748   5.978   5.223
29469SOL    HW193254   9.830   5.922   5.232
29469SOL    HW293255   9.667   5.920   5.227
29470SOL     OW93256   9.541   7.299   4.207
29470SOL    HW193257   9.575   7.376   4.261
29470SOL    HW293258   9.585   7.299   4.117
29471SOL     OW93259   9.540   7.020   4.262
29471SOL    HW193260   9.514   7.116   4.262
29471SOL    HW293261   9.469   6.966   4.307
29472SOL     OW93262   9.432   6.229   4.287
29472SOL    HW193263   9.387   6.141   4.304
29472SOL    HW293264   9.431   6.283   4.371
29473SOL     OW93265   9.923   6.951   4.450
29473SOL    HW193266   9.874   6.864   4.459
29473SOL    HW293267   9.900   6.994   4.363
29474SOL     OW93268  10.119   5.590   4.226
29474SOL    HW193269  10.159   5.681   4.217
29474SOL    HW293270  10.019   5.598   4.232
29475SOL     OW93271   9.507   6.562   4.988
29475SOL    HW193272   9.596   6.517   4.974
29475SOL    HW293273   9.434   6.497   4.969
29476SOL     OW93274   9.627   5.837   5.525
29476SOL    HW193275   9.698   5.908   5.531
29476SOL    HW293276   9.539   5.876   5.553
29477SOL     OW93277   9.908   6.315   3.994
29477SOL    HW193278   9.932   6.384   3.926
29477SOL    HW293279   9.830   6.348   4.048
29478SOL     OW93280   9.386   6.397   4.513
29478SOL    HW193281   9.485   6.385   4.522
29478SOL    HW293282   9.362   6.492   4.534
29479SOL     OW93283  10.175   5.934   3.919
29479SOL    HW193284  10.234   5.997   3.870
29479SOL    HW293285  10.194   5.840   3.890
29480SOL     OW93286   9.860   5.782   4.609
29480SOL    HW193287   9.855   5.777   4.709
29480SOL    HW293288   9.862   5.878   4.580
29481SOL     OW93289   9.661   7.387   4.577
29481SOL    HW193290   9.711   7.301   4.583
29481SOL    HW293291   9.726   7.464   4.574
29482SOL     OW93292   9.631   6.529   3.966
29482SOL    HW193293   9.713   6.568   3.924
29482SOL    HW293294   9.604   6.447   3.917
29483SOL     OW93295   9.771   6.852   5.451
29483SOL    HW193296   9.721   6.853   5.365
29483SOL    HW293297   9.708   6.834   5.527
29484SOL     OW93298   9.512   5.871   5.222
29484SOL    HW193299   9.432   5.931   5.209
29484SOL    HW293300   9.502   5.822   5.308
29485SOL     OW93301   9.774   7.329   4.047
29485SOL    HW193302   9.807   7.368   4.133
29485SOL    HW293303   9.850   7.322   3.982
29486SOL     OW93304   9.559   7.371   4.965
29486SOL    HW193305   9.616   7.306   5.015
29486SOL    HW293306   9.543   7.338   4.872
29487SOL     OW93307   9.692   6.286   4.204
29487SOL    HW193308   9.737   6.196   4.201
29487SOL    HW293309   9.598   6.275   4.237
29488SOL     OW93310   9.924   5.708   3.841
29488SOL    HW193311  10.022   5.686   3.848
29488SOL    HW293312   9.893   5.691   3.748
29489SOL     OW93313  10.113   6.988   4.648
29489SOL    HW193314  10.203   7.002   4.606
29489SOL    HW293315  10.042   6.990   4.577
29490SOL     OW93316   9.849   5.650   4.236
29490SOL    HW193317   9.768   5.651   4.294
29490SOL    HW293318   9.852   5.733   4.181
29491SOL     OW93319   9.607   5.621   3.895
29491SOL    HW193320   9.656   5.705   3.874
29491SOL    HW293321   9.669   5.556   3.940
29492SOL     OW93322  10.245   5.822   4.204
29492SOL    HW193323  10.197   5.863   4.126
29492SOL    HW293324  10.344   5.820   4.185
29493SOL     OW93325   9.388   6.142   5.110
29493SOL    HW193326   9.480   6.141   5.069
29493SOL    HW293327   9.382   6.216   5.177
29494SOL     OW93328   9.871   5.808   4.871
29494SOL    HW193329   9.909   5.724   4.908
29494SOL    HW293330   9.783   5.827   4.915
29495SOL     OW93331   9.837   5.842   4.052
29495SOL    HW193332   9.864   5.783   3.977
29495SOL    HW293333   9.837   5.937   4.021
29496SOL     OW93334   9.720   6.399   4.975
29496SOL    HW193335   9.806   6.411   5.025
29496SOL    HW293336   9.678   6.312   5.002
29497SOL     OW93337   9.374   7.150   5.055
29497SOL    HW193338   9.328   7.232   5.021
29497SOL    HW293339   9.472   7.169   5.064
29498SOL     OW93340   9.677   6.686   4.225
29498SOL    HW193341   9.670   6.769   4.169
29498SOL    HW293342   9.681   6.606   4.165
29499SOL     OW93343   9.876   6.123   4.589
29499SOL    HW193344   9.888   6.189   4.515
29499SOL    HW293345   9.922   6.157   4.672
29500SOL     OW93346   9.664   7.096   5.053
29500SOL    HW193347   9.643   7.052   4.966
29500SOL    HW293348   9.761   7.122   5.056
29501SOL     OW93349   9.712   6.337   5.322
29501SOL    HW193350   9.780   6.392   5.275
29501SOL    HW293351   9.752   6.249   5.349
29502SOL     OW93352   9.617   5.799   4.955
29502SOL    HW193353   9.594   5.836   5.045
29502SOL    HW293354   9.587   5.704   4.949
29503SOL     OW93355   9.347   6.896   5.006
29503SOL    HW193356   9.400   6.847   5.074
29503SOL    HW293357   9.369   6.994   5.011
29504SOL     OW93358   9.617   5.649   4.342
29504SOL    HW193359   9.606   5.743   4.375
29504SOL    HW293360   9.612   5.586   4.419
29505SOL     OW93361   9.660   6.484   5.528
29505SOL    HW193362   9.736   6.528   5.576
29505SOL    HW293363   9.695   6.437   5.446
29506SOL     OW93364   9.649   6.095   4.730
29506SOL    HW193365   9.597   6.012   4.713
29506SOL    HW293366   9.726   6.100   4.666
29507SOL     OW93367   9.318   6.912   3.924
29507SOL    HW193368   9.225   6.933   3.893
29507SOL    HW293369   9.328   6.813   3.937
29508SOL     OW93370   9.398   7.387   4.651
29508SOL    HW193371   9.356   7.301   4.624
29508SOL    HW293372   9.492   7.390   4.617
29509SOL     OW93373   9.814   7.154   4.634
29509SOL    HW193374   9.880   7.228   4.643
29509SOL    HW293375   9.858   7.075   4.592
29510SOL     OW93376   9.350   6.130   4.838
29510SOL    HW193377   9.435   6.097   4.797
29510SOL    HW293378   9.363   6.145   4.936
29511SOL     OW93379  10.125   6.158   4.049
29511SOL    HW193380  10.132   6.069   4.003
29511SOL    HW293381  10.031   6.192   4.041
29512SOL     OW93382   9.562   7.150   5.468
29512SOL    HW193383   9.532   7.207   5.544
29512SOL    HW293384   9.555   7.053   5.494
29513SOL     OW93385   9.783   6.086   3.915
29513SOL    HW193386   9.844   6.166   3.919
29513SOL    HW293387   9.688   6.117   3.922
29514SOL     OW93388   9.469   6.723   5.190
29514SOL    HW193389   9.491   6.662   5.266
29514SOL    HW293390   9.479   6.674   5.104
29515SOL     OW93391   9.998   7.248   5.440
29515SOL    HW193392   9.942   7.329   5.449
29515SOL    HW293393  10.050   7.252   5.354
29516SOL     OW93394   9.440   7.380   5.575
29516SOL    HW193395   9.399   7.306   5.628
29516SOL    HW293396   9.504   7.431   5.633
29517SOL     OW93397   9.573   5.912   4.444
29517SOL    HW193398   9.494   5.963   4.410
29517SOL    HW293399   9.564   5.897   4.542
29518SOL     OW93400   9.682   6.874   5.214
29518SOL    HW193401   9.669   6.967   5.180
29518SOL    HW293402   9.598   6.822   5.201
29519SOL     OW93403   9.900   7.073   4.215
29519SOL    HW193404   9.942   7.015   4.145
29519SOL    HW293405   9.856   7.152   4.171
29520SOL     OW93406   9.565   6.934   4.014
29520SOL    HW193407   9.469   6.935   3.987
29520SOL    HW293408   9.577   6.987   4.098
29521SOL     OW93409   9.415   6.599   5.450
29521SOL    HW193410   9.338   6.566   5.504
29521SOL    HW293411   9.500   6.569   5.492
29522SOL     OW93412   9.982   5.789   5.213
29522SOL    HW193413  10.072   5.773   5.173
29522SOL    HW293414   9.990   5.794   5.312
29523SOL     OW93415   9.385   5.931   3.757
29523SOL    HW193416   9.293   5.903   3.728
29523SOL    HW293417   9.416   6.008   3.701
29524SOL     OW93418   9.382   5.752   4.042
29524SOL    HW193419   9.365   5.835   3.988
29524SOL    HW293420   9.472   5.715   4.020
29525SOL     OW93421   9.923   6.428   5.155
29525SOL    HW193422   9.979   6.509   5.138
29525SOL    HW293423   9.982   6.348   5.158
29526SOL     OW93424   9.700   7.327   5.284
29526SOL    HW193425   9.609   7.368   5.282
29526SOL    HW293426   9.693   7.233   5.316
29527SOL     OW93427   9.904   6.331   4.376
29527SOL    HW193428   9.954   6.416   4.357
29527SOL    HW293429   9.816   6.333   4.328
29528SOL     OW93430   9.531   6.900   5.568
29528SOL    HW193431   9.466   6.827   5.547
29528SOL    HW293432   9.535   6.914   5.666
29529SOL     OW93433   9.982   6.977   5.348
29529SOL    HW193434   9.904   6.927   5.386
29529SOL    HW293435   9.979   7.072   5.379
29530SOL     OW93436   9.738   6.010   4.244
29530SOL    HW193437   9.768   5.938   4.182
29530SOL    HW293438   9.699   5.970   4.327
29531SOL     OW93439   9.627   6.133   5.004
29531SOL    HW193440   9.665   6.074   5.076
29531SOL    HW293441   9.667   6.107   4.916
29532SOL     OW93442   9.349   6.663   4.024
29532SOL    HW193443   9.448   6.652   4.015
29532SOL    HW293444   9.309   6.577   4.056
29533SOL     OW93445   9.540   6.214   5.699
29533SOL    HW193446   9.447   6.212   5.736
29533SOL    HW293447   9.541   6.175   5.607
29534SOL     OW93448   9.535   5.861   6.582
29534SOL    HW193449   9.570   5.844   6.674
29534SOL    HW293450   9.447   5.816   6.570
29535SOL     OW93451   9.329   5.954   6.233
29535SOL    HW193452   9.247   5.997   6.272
29535SOL    HW293453   9.301   5.881   6.170
29536SOL     OW93454   9.879   6.861   6.751
29536SOL    HW193455   9.786   6.854   6.714
29536SOL    HW293456   9.890   6.950   6.795
29537SOL     OW93457  10.160   6.384   7.409
29537SOL    HW193458  10.156   6.460   7.474
29537SOL    HW293459  10.182   6.420   7.318
29538SOL     OW93460   9.748   5.978   7.085
29538SOL    HW193461   9.830   5.922   7.094
29538SOL    HW293462   9.667   5.920   7.089
29539SOL     OW93463   9.541   7.299   6.069
29539SOL    HW193464   9.575   7.376   6.123
29539SOL    HW293465   9.585   7.299   5.979
29540SOL     OW93466   9.540   7.020   6.124
29540SOL    HW193467   9.514   7.116   6.124
29540SOL    HW293468   9.469   6.966   6.169
29541SOL     OW93469   9.432   6.229   6.149
29541SOL    HW193470   9.387   6.141   6.166
29541SOL    HW293471   9.431   6.283   6.233
29542SOL     OW93472   9.337   7.182   5.703
29542SOL    HW193473   9.318   7.086   5.724
29542SOL    HW293474   9.304   7.240   5.778
29543SOL     OW93475   9.423   6.323   7.183
29543SOL    HW193476   9.511   6.310   7.228
29543SOL    HW293477   9.410   6.420   7.161
29544SOL     OW93478   9.923   6.951   6.312
29544SOL    HW193479   9.874   6.864   6.321
29544SOL    HW293480   9.900   6.994   6.225
29545SOL     OW93481  10.119   5.590   6.088
29545SOL    HW193482  10.159   5.681   6.079
29545SOL    HW293483  10.019   5.598   6.094
29546SOL     OW93484   9.507   6.562   6.850
29546SOL    HW193485   9.596   6.517   6.836
29546SOL    HW293486   9.434   6.497   6.831
29547SOL     OW93487   9.908   6.315   5.856
29547SOL    HW193488   9.932   6.384   5.788
29547SOL    HW293489   9.830   6.348   5.910
29548SOL     OW93490   9.440   7.407   7.157
29548SOL    HW193491   9.430   7.392   7.256
29548SOL    HW293492   9.354   7.443   7.121
29549SOL     OW93493  10.175   5.934   5.781
29549SOL    HW193494  10.234   5.997   5.732
29549SOL    HW293495  10.194   5.840   5.752
29550SOL     OW93496   9.860   5.782   6.471
29550SOL    HW193497   9.855   5.777   6.571
29550SOL    HW293498   9.862   5.878   6.442
29551SOL     OW93499   9.661   7.387   6.439
29551SOL    HW193500   9.711   7.301   6.445
29551SOL    HW293501   9.726   7.464   6.436
29552SOL     OW93502   9.631   6.529   5.828
29552SOL    HW193503   9.713   6.568   5.786
29552SOL    HW293504   9.604   6.447   5.779
29553SOL     OW93505   9.771   6.852   7.313
29553SOL    HW193506   9.721   6.853   7.227
29553SOL    HW293507   9.708   6.834   7.389
29554SOL     OW93508   9.512   5.871   7.084
29554SOL    HW193509   9.432   5.931   7.071
29554SOL    HW293510   9.502   5.822   7.170
29555SOL     OW93511   9.559   7.371   6.827
29555SOL    HW193512   9.616   7.306   6.877
29555SOL    HW293513   9.543   7.338   6.734
29556SOL     OW93514   9.692   6.286   6.066
29556SOL    HW193515   9.737   6.196   6.063
29556SOL    HW293516   9.598   6.275   6.099
29557SOL     OW93517   9.924   5.708   5.703
29557SOL    HW193518  10.022   5.686   5.710
29557SOL    HW293519   9.893   5.691   5.610
29558SOL     OW93520  10.113   6.988   6.510
29558SOL    HW193521  10.203   7.002   6.468
29558SOL    HW293522  10.042   6.990   6.439
29559SOL     OW93523   9.849   5.650   6.098
29559SOL    HW193524   9.768   5.651   6.156
29559SOL    HW293525   9.852   5.733   6.043
29560SOL     OW93526   9.607   5.621   5.757
29560SOL    HW193527   9.656   5.705   5.736
29560SOL    HW293528   9.669   5.556   5.802
29561SOL     OW93529  10.245   5.822   6.066
29561SOL    HW193530  10.197   5.863   5.988
29561SOL    HW293531  10.344   5.820   6.047
29562SOL     OW93532   9.769   6.738   6.327
29562SOL    HW193533   9.698   6.711   6.392
29562SOL    HW293534   9.743   6.710   6.234
29563SOL     OW93535   9.388   6.142   6.972
29563SOL    HW193536   9.480   6.141   6.931
29563SOL    HW293537   9.382   6.216   7.039
29564SOL     OW93538   9.871   5.808   6.733
29564SOL    HW193539   9.909   5.724   6.770
29564SOL    HW293540   9.783   5.827   6.777
29565SOL     OW93541   9.837   5.842   5.914
29565SOL    HW193542   9.864   5.783   5.839
29565SOL    HW293543   9.837   5.937   5.883
29566SOL     OW93544   9.374   7.150   6.917
29566SOL    HW193545   9.328   7.232   6.883
29566SOL    HW293546   9.472   7.169   6.926
29567SOL     OW93547   9.677   6.686   6.087
29567SOL    HW193548   9.670   6.769   6.031
29567SOL    HW293549   9.681   6.606   6.027
29568SOL     OW93550   9.876   6.123   6.451
29568SOL    HW193551   9.888   6.189   6.377
29568SOL    HW293552   9.922   6.157   6.534
29569SOL     OW93553   9.664   7.096   6.915
29569SOL    HW193554   9.643   7.052   6.828
29569SOL    HW293555   9.761   7.122   6.918
29570SOL     OW93556   9.883   6.456   6.615
29570SOL    HW193557   9.927   6.545   6.606
29570SOL    HW293558   9.820   6.456   6.692
29571SOL     OW93559   9.617   5.799   6.817
29571SOL    HW193560   9.594   5.836   6.907
29571SOL    HW293561   9.587   5.704   6.811
29572SOL     OW93562   9.617   5.649   6.204
29572SOL    HW193563   9.606   5.743   6.237
29572SOL    HW293564   9.612   5.586   6.281
29573SOL     OW93565   9.660   6.484   7.390
29573SOL    HW193566   9.736   6.528   7.438
29573SOL    HW293567   9.695   6.437   7.308
29574SOL     OW93568   9.649   6.095   6.592
29574SOL    HW193569   9.597   6.012   6.575
29574SOL    HW293570   9.726   6.100   6.528
29575SOL     OW93571   9.318   6.912   5.786
29575SOL    HW193572   9.225   6.933   5.755
29575SOL    HW293573   9.328   6.813   5.799
29576SOL     OW93574   9.398   7.387   6.513
29576SOL    HW193575   9.356   7.301   6.486
29576SOL    HW293576   9.492   7.390   6.479
29577SOL     OW93577   9.814   7.154   6.496
29577SOL    HW193578   9.880   7.228   6.505
29577SOL    HW293579   9.858   7.075   6.454
29578SOL     OW93580   9.350   6.130   6.700
29578SOL    HW193581   9.435   6.097   6.659
29578SOL    HW293582   9.363   6.145   6.798
29579SOL     OW93583   9.499   6.106   7.308
29579SOL    HW193584   9.558   6.066   7.238
29579SOL    HW293585   9.441   6.177   7.267
29580SOL     OW93586  10.125   6.158   5.911
29580SOL    HW193587  10.132   6.069   5.865
29580SOL    HW293588  10.031   6.192   5.903
29581SOL     OW93589   9.562   7.150   7.330
29581SOL    HW193590   9.532   7.207   7.406
29581SOL    HW293591   9.555   7.053   7.356
29582SOL     OW93592   9.783   6.086   5.777
29582SOL    HW193593   9.844   6.166   5.781
29582SOL    HW293594   9.688   6.117   5.784
29583SOL     OW93595   9.998   7.248   7.302
29583SOL    HW193596   9.942   7.329   7.311
29583SOL    HW293597  10.050   7.252   7.216
29584SOL     OW93598   9.440   7.380   7.437
29584SOL    HW193599   9.399   7.306   7.490
29584SOL    HW293600   9.504   7.431   7.495
29585SOL     OW93601   9.573   5.912   6.306
29585SOL    HW193602   9.494   5.963   6.272
29585SOL    HW293603   9.564   5.897   6.404
29586SOL     OW93604   9.682   6.874   7.076
29586SOL    HW193605   9.669   6.967   7.042
29586SOL    HW293606   9.598   6.822   7.063
29587SOL     OW93607   9.900   7.073   6.077
29587SOL    HW193608   9.942   7.015   6.007
29587SOL    HW293609   9.856   7.152   6.033
29588SOL     OW93610   9.565   6.934   5.876
29588SOL    HW193611   9.469   6.935   5.849
29588SOL    HW293612   9.577   6.987   5.960
29589SOL     OW93613   9.415   6.599   7.312
29589SOL    HW193614   9.338   6.566   7.366
29589SOL    HW293615   9.500   6.569   7.354
29590SOL     OW93616   9.982   5.789   7.075
29590SOL    HW193617  10.072   5.773   7.035
29590SOL    HW293618   9.990   5.794   7.174
29591SOL     OW93619   9.385   5.931   5.619
29591SOL    HW193620   9.293   5.903   5.590
29591SOL    HW293621   9.416   6.008   5.563
29592SOL     OW93622   9.382   5.752   5.904
29592SOL    HW193623   9.365   5.835   5.850
29592SOL    HW293624   9.472   5.715   5.882
29593SOL     OW93625   9.700   7.327   7.146
29593SOL    HW193626   9.609   7.368   7.144
29593SOL    HW293627   9.693   7.233   7.178
29594SOL     OW93628   9.904   6.331   6.238
29594SOL    HW193629   9.954   6.416   6.219
29594SOL    HW293630   9.816   6.333   6.190
29595SOL     OW93631   9.531   6.900   7.430
29595SOL    HW193632   9.466   6.827   7.409
29595SOL    HW293633   9.535   6.914   7.528
29596SOL     OW93634   9.982   6.977   7.210
29596SOL    HW193635   9.904   6.927   7.248
29596SOL    HW293636   9.979   7.072   7.241
29597SOL     OW93637   9.738   6.010   6.106
29597SOL    HW193638   9.768   5.938   6.044
29597SOL    HW293639   9.699   5.970   6.189
29598SOL     OW93640   9.540   6.214   7.561
29598SOL    HW193641   9.447   6.212   7.598
29598SOL    HW293642   9.541   6.175   7.469
29599SOL     OW93643   9.535   5.861   8.444
29599SOL    HW193644   9.570   5.844   8.536
29599SOL    HW293645   9.447   5.816   8.432
29600SOL     OW93646   9.329   5.954   8.095
29600SOL    HW193647   9.247   5.997   8.134
29600SOL    HW293648   9.301   5.881   8.032
29601SOL     OW93649  10.160   6.384   9.271
29601SOL    HW193650  10.156   6.460   9.336
29601SOL    HW293651  10.182   6.420   9.180
29602SOL     OW93652   9.645   7.021   8.509
29602SOL    HW193653   9.567   6.990   8.456
29602SOL    HW293654   9.703   7.079   8.452
29603SOL     OW93655   9.748   5.978   8.947
29603SOL    HW193656   9.830   5.922   8.956
29603SOL    HW293657   9.667   5.920   8.951
29604SOL     OW93658   9.541   7.299   7.931
29604SOL    HW193659   9.575   7.376   7.985
29604SOL    HW293660   9.585   7.299   7.841
29605SOL     OW93661   9.540   7.020   7.986
29605SOL    HW193662   9.514   7.116   7.986
29605SOL    HW293663   9.469   6.966   8.031
29606SOL     OW93664   9.550   6.677   8.334
29606SOL    HW193665   9.564   6.593   8.386
29606SOL    HW293666   9.495   6.741   8.389
29607SOL     OW93667   9.432   6.229   8.011
29607SOL    HW193668   9.387   6.141   8.028
29607SOL    HW293669   9.431   6.283   8.095
29608SOL     OW93670   9.337   7.182   7.565
29608SOL    HW193671   9.318   7.086   7.586
29608SOL    HW293672   9.304   7.240   7.640
29609SOL     OW93673   9.423   6.323   9.045
29609SOL    HW193674   9.511   6.310   9.090
29609SOL    HW293675   9.410   6.420   9.023
29610SOL     OW93676   9.923   6.951   8.174
29610SOL    HW193677   9.874   6.864   8.183
29610SOL    HW293678   9.900   6.994   8.087
29611SOL     OW93679   9.507   6.562   8.712
29611SOL    HW193680   9.596   6.517   8.698
29611SOL    HW293681   9.434   6.497   8.693
29612SOL     OW93682   9.627   5.837   9.249
29612SOL    HW193683   9.698   5.908   9.255
29612SOL    HW293684   9.539   5.876   9.277
29613SOL     OW93685   9.908   6.315   7.718
29613SOL    HW193686   9.932   6.384   7.650
29613SOL    HW293687   9.830   6.348   7.772
29614SOL     OW93688   9.386   6.397   8.237
29614SOL    HW193689   9.485   6.385   8.246
29614SOL    HW293690   9.362   6.492   8.258
29615SOL     OW93691   9.440   7.407   9.019
29615SOL    HW193692   9.430   7.392   9.118
29615SOL    HW293693   9.354   7.443   8.983
29616SOL     OW93694  10.175   5.934   7.643
29616SOL    HW193695  10.234   5.997   7.594
29616SOL    HW293696  10.194   5.840   7.614
29617SOL     OW93697   9.860   5.782   8.333
29617SOL    HW193698   9.855   5.777   8.433
29617SOL    HW293699   9.862   5.878   8.304
29618SOL     OW93700   9.661   7.387   8.301
29618SOL    HW193701   9.711   7.301   8.307
29618SOL    HW293702   9.726   7.464   8.298
29619SOL     OW93703   9.631   6.529   7.690
29619SOL    HW193704   9.713   6.568   7.648
29619SOL    HW293705   9.604   6.447   7.641
29620SOL     OW93706   9.771   6.852   9.175
29620SOL    HW193707   9.721   6.853   9.089
29620SOL    HW293708   9.708   6.834   9.251
29621SOL     OW93709   9.512   5.871   8.946
29621SOL    HW193710   9.432   5.931   8.933
29621SOL    HW293711   9.502   5.822   9.032
29622SOL     OW93712   9.774   7.329   7.771
29622SOL    HW193713   9.807   7.368   7.857
29622SOL    HW293714   9.850   7.322   7.706
29623SOL     OW93715   9.559   7.371   8.689
29623SOL    HW193716   9.616   7.306   8.739
29623SOL    HW293717   9.543   7.338   8.596
29624SOL     OW93718   9.692   6.286   7.928
29624SOL    HW193719   9.737   6.196   7.925
29624SOL    HW293720   9.598   6.275   7.961
29625SOL     OW93721   9.924   5.708   7.565
29625SOL    HW193722  10.022   5.686   7.572
29625SOL    HW293723   9.893   5.691   7.472
29626SOL     OW93724  10.113   6.988   8.372
29626SOL    HW193725  10.203   7.002   8.330
29626SOL    HW293726  10.042   6.990   8.301
29627SOL     OW93727  10.245   5.822   7.928
29627SOL    HW193728  10.197   5.863   7.850
29627SOL    HW293729  10.344   5.820   7.909
29628SOL     OW93730   9.769   6.738   8.189
29628SOL    HW193731   9.698   6.711   8.254
29628SOL    HW293732   9.743   6.710   8.096
29629SOL     OW93733   9.388   6.142   8.834
29629SOL    HW193734   9.480   6.141   8.793
29629SOL    HW293735   9.382   6.216   8.901
29630SOL     OW93736   9.871   5.808   8.595
29630SOL    HW193737   9.909   5.724   8.632
29630SOL    HW293738   9.783   5.827   8.639
29631SOL     OW93739   9.837   5.842   7.776
29631SOL    HW193740   9.864   5.783   7.701
29631SOL    HW293741   9.837   5.937   7.745
29632SOL     OW93742   9.374   7.150   8.779
29632SOL    HW193743   9.328   7.232   8.745
29632SOL    HW293744   9.472   7.169   8.788
29633SOL     OW93745   9.677   6.686   7.949
29633SOL    HW193746   9.670   6.769   7.893
29633SOL    HW293747   9.681   6.606   7.889
29634SOL     OW93748   9.876   6.123   8.313
29634SOL    HW193749   9.888   6.189   8.239
29634SOL    HW293750   9.922   6.157   8.396
29635SOL     OW93751   9.664   7.096   8.777
29635SOL    HW193752   9.643   7.052   8.690
29635SOL    HW293753   9.761   7.122   8.780
29636SOL     OW93754   9.712   6.337   9.046
29636SOL    HW193755   9.780   6.392   8.999
29636SOL    HW293756   9.752   6.249   9.073
29637SOL     OW93757   9.814   5.636   9.188
29637SOL    HW193758   9.772   5.579   9.118
29637SOL    HW293759   9.748   5.705   9.220
29638SOL     OW93760   9.617   5.799   8.679
29638SOL    HW193761   9.594   5.836   8.769
29638SOL    HW293762   9.587   5.704   8.673
29639SOL     OW93763   9.347   6.896   8.730
29639SOL    HW193764   9.400   6.847   8.798
29639SOL    HW293765   9.369   6.994   8.735
29640SOL     OW93766   9.617   5.649   8.066
29640SOL    HW193767   9.606   5.743   8.099
29640SOL    HW293768   9.612   5.586   8.143
29641SOL     OW93769   9.660   6.484   9.252
29641SOL    HW193770   9.736   6.528   9.300
29641SOL    HW293771   9.695   6.437   9.170
29642SOL     OW93772   9.629   6.396   8.397
29642SOL    HW193773   9.722   6.432   8.402
29642SOL    HW293774   9.623   6.311   8.449
29643SOL     OW93775   9.649   6.095   8.454
29643SOL    HW193776   9.597   6.012   8.437
29643SOL    HW293777   9.726   6.100   8.390
29644SOL     OW93778   9.318   6.912   7.648
29644SOL    HW193779   9.225   6.933   7.617
29644SOL    HW293780   9.328   6.813   7.661
29645SOL     OW93781   9.398   7.387   8.375
29645SOL    HW193782   9.356   7.301   8.348
29645SOL    HW293783   9.492   7.390   8.341
29646SOL     OW93784   9.814   7.154   8.358
29646SOL    HW193785   9.880   7.228   8.367
29646SOL    HW293786   9.858   7.075   8.316
29647SOL     OW93787   9.350   6.130   8.562
29647SOL    HW193788   9.435   6.097   8.521
29647SOL    HW293789   9.363   6.145   8.660
29648SOL     OW93790   9.499   6.106   9.170
29648SOL    HW193791   9.558   6.066   9.100
29648SOL    HW293792   9.441   6.177   9.129
29649SOL     OW93793  10.125   6.158   7.773
29649SOL    HW193794  10.132   6.069   7.727
29649SOL    HW293795  10.031   6.192   7.765
29650SOL     OW93796   9.562   7.150   9.192
29650SOL    HW193797   9.532   7.207   9.268
29650SOL    HW293798   9.555   7.053   9.218
29651SOL     OW93799   9.783   6.086   7.639
29651SOL    HW193800   9.844   6.166   7.643
29651SOL    HW293801   9.688   6.117   7.646
29652SOL     OW93802   9.469   6.723   8.914
29652SOL    HW193803   9.491   6.662   8.990
29652SOL    HW293804   9.479   6.674   8.828
29653SOL     OW93805   9.393   6.844   8.470
29653SOL    HW193806   9.388   6.843   8.570
29653SOL    HW293807   9.310   6.803   8.432
29654SOL     OW93808   9.440   7.380   9.299
29654SOL    HW193809   9.399   7.306   9.352
29654SOL    HW293810   9.504   7.431   9.357
29655SOL     OW93811   9.573   5.912   8.168
29655SOL    HW193812   9.494   5.963   8.134
29655SOL    HW293813   9.564   5.897   8.266
29656SOL     OW93814   9.900   7.073   7.939
29656SOL    HW193815   9.942   7.015   7.869
29656SOL    HW293816   9.856   7.152   7.895
29657SOL     OW93817   9.565   6.934   7.738
29657SOL    HW193818   9.469   6.935   7.711
29657SOL    HW293819   9.577   6.987   7.822
29658SOL     OW93820   9.415   6.599   9.174
29658SOL    HW193821   9.338   6.566   9.228
29658SOL    HW293822   9.500   6.569   9.216
29659SOL     OW93823   9.982   5.789   8.937
29659SOL    HW193824  10.072   5.773   8.897
29659SOL    HW293825   9.990   5.794   9.036
29660SOL     OW93826   9.385   5.931   7.481
29660SOL    HW193827   9.293   5.903   7.452
29660SOL    HW293828   9.416   6.008   7.425
29661SOL     OW93829   9.382   5.752   7.766
29661SOL    HW193830   9.365   5.835   7.712
29661SOL    HW293831   9.472   5.715   7.744
29662SOL     OW93832   9.700   7.327   9.008
29662SOL    HW193833   9.609   7.368   9.006
29662SOL    HW293834   9.693   7.233   9.040
29663SOL     OW93835   9.904   6.331   8.100
29663SOL    HW193836   9.954   6.416   8.081
29663SOL    HW293837   9.816   6.333   8.052
29664SOL     OW93838   9.531   6.900   9.292
29664SOL    HW193839   9.466   6.827   9.271
29664SOL    HW293840   9.535   6.914   9.390
29665SOL     OW93841   9.389   6.826   8.101
29665SOL    HW193842   9.388   6.779   8.189
29665SOL    HW293843   9.471   6.798   8.050
29666SOL     OW93844   9.738   6.010   7.968
29666SOL    HW193845   9.768   5.938   7.906
29666SOL    HW293846   9.699   5.970   8.051
29667SOL     OW93847   9.627   6.133   8.728
29667SOL    HW193848   9.665   6.074   8.800
29667SOL    HW293849   9.667   6.107   8.640
29668SOL     OW93850   9.349   6.663   7.748
29668SOL    HW193851   9.448   6.652   7.739
29668SOL    HW293852   9.309   6.577   7.780
29669SOL     OW93853   9.540   6.214   9.423
29669SOL    HW193854   9.447   6.212   9.460
29669SOL    HW293855   9.541   6.175   9.331
29670SOL     OW93856   9.541   7.299   9.793
29670SOL    HW193857   9.575   7.376   9.847
29670SOL    HW293858   9.585   7.299   9.703
29671SOL     OW93859   9.540   7.020   9.848
29671SOL    HW193860   9.514   7.116   9.848
29671SOL    HW293861   9.469   6.966   9.893
29672SOL     OW93862   9.432   6.229   9.873
29672SOL    HW193863   9.387   6.141   9.890
29672SOL    HW293864   9.431   6.283   9.957
29673SOL     OW93865   9.337   7.182   9.427
29673SOL    HW193866   9.318   7.086   9.448
29673SOL    HW293867   9.304   7.240   9.502
29674SOL     OW93868  10.119   5.590   9.812
29674SOL    HW193869  10.159   5.681   9.803
29674SOL    HW293870  10.019   5.598   9.818
29675SOL     OW93871   9.908   6.315   9.580
29675SOL    HW193872   9.932   6.384   9.512
29675SOL    HW293873   9.830   6.348   9.634
29676SOL     OW93874   9.386   6.397  10.099
29676SOL    HW193875   9.485   6.385  10.108
29676SOL    HW293876   9.362   6.492  10.120
29677SOL     OW93877  10.175   5.934   9.505
29677SOL    HW193878  10.234   5.997   9.456
29677SOL    HW293879  10.194   5.840   9.476
29678SOL     OW93880   9.661   7.387  10.163
29678SOL    HW193881   9.711   7.301  10.169
29678SOL    HW293882   9.726   7.464  10.160
29679SOL     OW93883   9.631   6.529   9.552
29679SOL    HW193884   9.713   6.568   9.510
29679SOL    HW293885   9.604   6.447   9.503
29680SOL     OW93886   9.774   7.329   9.633
29680SOL    HW193887   9.807   7.368   9.719
29680SOL    HW293888   9.850   7.322   9.568
29681SOL     OW93889   9.692   6.286   9.790
29681SOL    HW193890   9.737   6.196   9.787
29681SOL    HW293891   9.598   6.275   9.823
29682SOL     OW93892   9.924   5.708   9.427
29682SOL    HW193893  10.022   5.686   9.434
29682SOL    HW293894   9.893   5.691   9.334
29683SOL     OW93895   9.849   5.650   9.822
29683SOL    HW193896   9.768   5.651   9.880
29683SOL    HW293897   9.852   5.733   9.767
29684SOL     OW93898   9.607   5.621   9.481
29684SOL    HW193899   9.656   5.705   9.460
29684SOL    HW293900   9.669   5.556   9.526
29685SOL     OW93901  10.245   5.822   9.790
29685SOL    HW193902  10.197   5.863   9.712
29685SOL    HW293903  10.344   5.820   9.771
29686SOL     OW93904   9.769   6.738  10.051
29686SOL    HW193905   9.698   6.711  10.116
29686SOL    HW293906   9.743   6.710   9.958
29687SOL     OW93907   9.677   6.686   9.811
29687SOL    HW193908   9.670   6.769   9.755
29687SOL    HW293909   9.681   6.606   9.751
29688SOL     OW93910   9.617   5.649   9.928
29688SOL    HW193911   9.606   5.743   9.961
29688SOL    HW293912   9.612   5.586  10.005
29689SOL     OW93913   9.318   6.912   9.510
29689SOL    HW193914   9.225   6.933   9.479
29689SOL    HW293915   9.328   6.813   9.523
29690SOL     OW93916  10.125   6.158   9.635
29690SOL    HW193917  10.132   6.069   9.589
29690SOL    HW293918  10.031   6.192   9.627
29691SOL     OW93919   9.783   6.086   9.501
29691SOL    HW193920   9.844   6.166   9.505
29691SOL    HW293921   9.688   6.117   9.508
29692SOL     OW93922   9.900   7.073   9.801
29692SOL    HW193923   9.942   7.015   9.731
29692SOL    HW293924   9.856   7.152   9.757
29693SOL     OW93925   9.565   6.934   9.600
29693SOL    HW193926   9.469   6.935   9.573
29693SOL    HW293927   9.577   6.987   9.684
29694SOL     OW93928   9.385   5.931   9.343
29694SOL    HW193929   9.293   5.903   9.314
29694SOL    HW293930   9.416   6.008   9.287
29695SOL     OW93931   9.382   5.752   9.628
29695SOL    HW193932   9.365   5.835   9.574
29695SOL    HW293933   9.472   5.715   9.606
29696SOL     OW93934   9.904   6.331   9.962
29696SOL    HW193935   9.954   6.416   9.943
29696SOL    HW293936   9.816   6.333   9.914
29697SOL     OW93937   9.389   6.826   9.963
29697SOL    HW193938   9.388   6.779  10.051
29697SOL    HW293939   9.471   6.798   9.912
29698SOL     OW93940   9.738   6.010   9.830
29698SOL    HW193941   9.768   5.938   9.768
29698SOL    HW293942   9.699   5.970   9.913
29699SOL     OW93943   9.349   6.663   9.610
29699SOL    HW193944   9.448   6.652   9.601
29699SOL    HW293945   9.309   6.577   9.642
29700SOL     OW93946   9.540   8.076   0.113
29700SOL    HW193947   9.447   8.074   0.150
29700SOL    HW293948   9.541   8.037   0.021
29701SOL     OW93949   9.535   7.723   0.996
29701SOL    HW193950   9.570   7.706   1.088
29701SOL    HW293951   9.447   7.678   0.984
29702SOL     OW93952   9.329   7.816   0.647
29702SOL    HW193953   9.247   7.859   0.686
29702SOL    HW293954   9.301   7.743   0.584
29703SOL     OW93955   9.879   8.723   1.165
29703SOL    HW193956   9.786   8.716   1.128
29703SOL    HW293957   9.890   8.812   1.209
29704SOL     OW93958   9.645   8.883   1.061
29704SOL    HW193959   9.567   8.852   1.008
29704SOL    HW293960   9.703   8.941   1.004
29705SOL     OW93961   9.748   7.840   1.499
29705SOL    HW193962   9.830   7.784   1.508
29705SOL    HW293963   9.667   7.782   1.503
29706SOL     OW93964   9.541   9.161   0.483
29706SOL    HW193965   9.575   9.238   0.537
29706SOL    HW293966   9.585   9.161   0.393
29707SOL     OW93967   9.540   8.882   0.538
29707SOL    HW193968   9.514   8.978   0.538
29707SOL    HW293969   9.469   8.828   0.583
29708SOL     OW93970   9.550   8.539   0.886
29708SOL    HW193971   9.564   8.455   0.938
29708SOL    HW293972   9.495   8.603   0.941
29709SOL     OW93973   9.432   8.091   0.563
29709SOL    HW193974   9.387   8.003   0.580
29709SOL    HW293975   9.431   8.145   0.647
29710SOL     OW93976   9.337   9.044   0.117
29710SOL    HW193977   9.318   8.948   0.138
29710SOL    HW293978   9.304   9.102   0.192
29711SOL     OW93979   9.423   8.185   1.597
29711SOL    HW193980   9.511   8.172   1.642
29711SOL    HW293981   9.410   8.282   1.575
29712SOL     OW93982   9.923   8.813   0.726
29712SOL    HW193983   9.874   8.726   0.735
29712SOL    HW293984   9.900   8.856   0.639
29713SOL     OW93985  10.119   7.452   0.502
29713SOL    HW193986  10.159   7.543   0.493
29713SOL    HW293987  10.019   7.460   0.508
29714SOL     OW93988   9.627   7.699   1.801
29714SOL    HW193989   9.698   7.770   1.807
29714SOL    HW293990   9.539   7.738   1.829
29715SOL     OW93991   9.908   8.177   0.270
29715SOL    HW193992   9.932   8.246   0.202
29715SOL    HW293993   9.830   8.210   0.324
29716SOL     OW93994   9.386   8.259   0.789
29716SOL    HW193995   9.485   8.247   0.798
29716SOL    HW293996   9.362   8.354   0.810
29717SOL     OW93997   9.440   9.269   1.571
29717SOL    HW193998   9.430   9.254   1.670
29717SOL    HW293999   9.354   9.305   1.535
29718SOL     OW94000  10.175   7.796   0.195
29718SOL    HW194001  10.234   7.859   0.146
29718SOL    HW294002  10.194   7.702   0.166
29719SOL     OW94003   9.860   7.644   0.885
29719SOL    HW194004   9.855   7.639   0.985
29719SOL    HW294005   9.862   7.740   0.856
29720SOL     OW94006   9.661   9.249   0.853
29720SOL    HW194007   9.711   9.163   0.859
29720SOL    HW294008   9.726   9.326   0.850
29721SOL     OW94009   9.631   8.391   0.242
29721SOL    HW194010   9.713   8.430   0.200
29721SOL    HW294011   9.604   8.309   0.193
29722SOL     OW94012   9.771   8.714   1.727
29722SOL    HW194013   9.721   8.715   1.641
29722SOL    HW294014   9.708   8.696   1.803
29723SOL     OW94015   9.512   7.733   1.498
29723SOL    HW194016   9.432   7.793   1.485
29723SOL    HW294017   9.502   7.684   1.584
29724SOL     OW94018   9.774   9.191   0.323
29724SOL    HW194019   9.807   9.230   0.409
29724SOL    HW294020   9.850   9.184   0.258
29725SOL     OW94021   9.559   9.233   1.241
29725SOL    HW194022   9.616   9.168   1.291
29725SOL    HW294023   9.543   9.200   1.148
29726SOL     OW94024   9.692   8.148   0.480
29726SOL    HW194025   9.737   8.058   0.477
29726SOL    HW294026   9.598   8.137   0.513
29727SOL     OW94027   9.924   7.570   0.117
29727SOL    HW194028  10.022   7.548   0.124
29727SOL    HW294029   9.893   7.553   0.024
29728SOL     OW94030   9.849   7.512   0.512
29728SOL    HW194031   9.768   7.513   0.570
29728SOL    HW294032   9.852   7.595   0.457
29729SOL     OW94033  10.245   7.684   0.480
29729SOL    HW194034  10.197   7.725   0.402
29729SOL    HW294035  10.344   7.682   0.461
29730SOL     OW94036   9.769   8.600   0.741
29730SOL    HW194037   9.698   8.573   0.806
29730SOL    HW294038   9.743   8.572   0.648
29731SOL     OW94039   9.388   8.004   1.386
29731SOL    HW194040   9.480   8.003   1.345
29731SOL    HW294041   9.382   8.078   1.453
29732SOL     OW94042   9.871   7.670   1.147
29732SOL    HW194043   9.909   7.586   1.184
29732SOL    HW294044   9.783   7.689   1.191
29733SOL     OW94045   9.837   7.704   0.328
29733SOL    HW194046   9.864   7.645   0.253
29733SOL    HW294047   9.837   7.799   0.297
29734SOL     OW94048   9.720   8.261   1.251
29734SOL    HW194049   9.806   8.273   1.301
29734SOL    HW294050   9.678   8.174   1.278
29735SOL     OW94051   9.374   9.012   1.331
29735SOL    HW194052   9.328   9.094   1.297
29735SOL    HW294053   9.472   9.031   1.340
29736SOL     OW94054   9.677   8.548   0.501
29736SOL    HW194055   9.670   8.631   0.445
29736SOL    HW294056   9.681   8.468   0.441
29737SOL     OW94057   9.876   7.985   0.865
29737SOL    HW194058   9.888   8.051   0.791
29737SOL    HW294059   9.922   8.019   0.948
29738SOL     OW94060   9.664   8.958   1.329
29738SOL    HW194061   9.643   8.914   1.242
29738SOL    HW294062   9.761   8.984   1.332
29739SOL     OW94063   9.712   8.199   1.598
29739SOL    HW194064   9.780   8.254   1.551
29739SOL    HW294065   9.752   8.111   1.625
29740SOL     OW94066   9.814   7.498   1.740
29740SOL    HW194067   9.772   7.441   1.670
29740SOL    HW294068   9.748   7.567   1.772
29741SOL     OW94069   9.883   8.318   1.029
29741SOL    HW194070   9.927   8.407   1.020
29741SOL    HW294071   9.820   8.318   1.106
29742SOL     OW94072   9.617   7.661   1.231
29742SOL    HW194073   9.594   7.698   1.321
29742SOL    HW294074   9.587   7.566   1.225
29743SOL     OW94075   9.347   8.758   1.282
29743SOL    HW194076   9.400   8.709   1.350
29743SOL    HW294077   9.369   8.856   1.287
29744SOL     OW94078   9.617   7.511   0.618
29744SOL    HW194079   9.606   7.605   0.651
29744SOL    HW294080   9.612   7.448   0.695
29745SOL     OW94081   9.660   8.346   1.804
29745SOL    HW194082   9.736   8.390   1.852
29745SOL    HW294083   9.695   8.299   1.722
29746SOL     OW94084   9.629   8.258   0.949
29746SOL    HW194085   9.722   8.294   0.954
29746SOL    HW294086   9.623   8.173   1.001
29747SOL     OW94087   9.649   7.957   1.006
29747SOL    HW194088   9.597   7.874   0.989
29747SOL    HW294089   9.726   7.962   0.942
29748SOL     OW94090   9.318   8.774   0.200
29748SOL    HW194091   9.225   8.795   0.169
29748SOL    HW294092   9.328   8.675   0.213
29749SOL     OW94093   9.398   9.249   0.927
29749SOL    HW194094   9.356   9.163   0.900
29749SOL    HW294095   9.492   9.252   0.893
29750SOL     OW94096   9.350   7.992   1.114
29750SOL    HW194097   9.435   7.959   1.073
29750SOL    HW294098   9.363   8.007   1.212
29751SOL     OW94099   9.499   7.968   1.722
29751SOL    HW194100   9.558   7.928   1.652
29751SOL    HW294101   9.441   8.039   1.681
29752SOL     OW94102  10.125   8.020   0.325
29752SOL    HW194103  10.132   7.931   0.279
29752SOL    HW294104  10.031   8.054   0.317
29753SOL     OW94105   9.562   9.012   1.744
29753SOL    HW194106   9.532   9.069   1.820
29753SOL    HW294107   9.555   8.915   1.770
29754SOL     OW94108   9.783   7.948   0.191
29754SOL    HW194109   9.844   8.028   0.195
29754SOL    HW294110   9.688   7.979   0.198
29755SOL     OW94111   9.469   8.585   1.466
29755SOL    HW194112   9.491   8.524   1.542
29755SOL    HW294113   9.479   8.536   1.380
29756SOL     OW94114   9.393   8.706   1.022
29756SOL    HW194115   9.388   8.705   1.122
29756SOL    HW294116   9.310   8.665   0.984
29757SOL     OW94117   9.998   9.110   1.716
29757SOL    HW194118   9.942   9.191   1.725
29757SOL    HW294119  10.050   9.114   1.630
29758SOL     OW94120   9.440   9.242   1.851
29758SOL    HW194121   9.399   9.168   1.904
29758SOL    HW294122   9.504   9.293   1.909
29759SOL     OW94123   9.573   7.774   0.720
29759SOL    HW194124   9.494   7.825   0.686
29759SOL    HW294125   9.564   7.759   0.818
29760SOL     OW94126   9.682   8.736   1.490
29760SOL    HW194127   9.669   8.829   1.456
29760SOL    HW294128   9.598   8.684   1.477
29761SOL     OW94129   9.900   8.935   0.491
29761SOL    HW194130   9.942   8.877   0.421
29761SOL    HW294131   9.856   9.014   0.447
29762SOL     OW94132   9.565   8.796   0.290
29762SOL    HW194133   9.469   8.797   0.263
29762SOL    HW294134   9.577   8.849   0.374
29763SOL     OW94135   9.415   8.461   1.726
29763SOL    HW194136   9.338   8.428   1.780
29763SOL    HW294137   9.500   8.431   1.768
29764SOL     OW94138   9.982   7.651   1.489
29764SOL    HW194139  10.072   7.635   1.449
29764SOL    HW294140   9.990   7.656   1.588
29765SOL     OW94141   9.385   7.793   0.033
29765SOL    HW194142   9.293   7.765   0.004
29765SOL    HW294143   9.416   7.870  -0.023
29766SOL     OW94144   9.382   7.614   0.318
29766SOL    HW194145   9.365   7.697   0.264
29766SOL    HW294146   9.472   7.577   0.296
29767SOL     OW94147   9.923   8.290   1.431
29767SOL    HW194148   9.979   8.371   1.414
29767SOL    HW294149   9.982   8.210   1.434
29768SOL     OW94150   9.700   9.189   1.560
29768SOL    HW194151   9.609   9.230   1.558
29768SOL    HW294152   9.693   9.095   1.592
29769SOL     OW94153   9.904   8.193   0.652
29769SOL    HW194154   9.954   8.278   0.633
29769SOL    HW294155   9.816   8.195   0.604
29770SOL     OW94156   9.531   8.762   1.844
29770SOL    HW194157   9.466   8.689   1.823
29770SOL    HW294158   9.535   8.776   1.942
29771SOL     OW94159   9.389   8.688   0.653
29771SOL    HW194160   9.388   8.641   0.741
29771SOL    HW294161   9.471   8.660   0.602
29772SOL     OW94162   9.982   8.839   1.624
29772SOL    HW194163   9.904   8.789   1.662
29772SOL    HW294164   9.979   8.934   1.655
29773SOL     OW94165   9.738   7.872   0.520
29773SOL    HW194166   9.768   7.800   0.458
29773SOL    HW294167   9.699   7.832   0.603
29774SOL     OW94168   9.627   7.995   1.280
29774SOL    HW194169   9.665   7.936   1.352
29774SOL    HW294170   9.667   7.969   1.192
29775SOL     OW94171   9.349   8.525   0.300
29775SOL    HW194172   9.448   8.514   0.291
29775SOL    HW294173   9.309   8.439   0.332
29776SOL     OW94174   9.540   8.076   1.975
29776SOL    HW194175   9.447   8.074   2.012
29776SOL    HW294176   9.541   8.037   1.883
29777SOL     OW94177   9.535   7.723   2.858
29777SOL    HW194178   9.570   7.706   2.950
29777SOL    HW294179   9.447   7.678   2.846
29778SOL     OW94180   9.329   7.816   2.509
29778SOL    HW194181   9.247   7.859   2.548
29778SOL    HW294182   9.301   7.743   2.446
29779SOL     OW94183   9.879   8.723   3.027
29779SOL    HW194184   9.786   8.716   2.990
29779SOL    HW294185   9.890   8.812   3.071
29780SOL     OW94186  10.160   8.246   3.685
29780SOL    HW194187  10.156   8.322   3.750
29780SOL    HW294188  10.182   8.282   3.594
29781SOL     OW94189   9.645   8.883   2.923
29781SOL    HW194190   9.567   8.852   2.870
29781SOL    HW294191   9.703   8.941   2.866
29782SOL     OW94192   9.748   7.840   3.361
29782SOL    HW194193   9.830   7.784   3.370
29782SOL    HW294194   9.667   7.782   3.365
29783SOL     OW94195   9.541   9.161   2.345
29783SOL    HW194196   9.575   9.238   2.399
29783SOL    HW294197   9.585   9.161   2.255
29784SOL     OW94198   9.432   8.091   2.425
29784SOL    HW194199   9.387   8.003   2.442
29784SOL    HW294200   9.431   8.145   2.509
29785SOL     OW94201   9.337   9.044   1.979
29785SOL    HW194202   9.318   8.948   2.000
29785SOL    HW294203   9.304   9.102   2.054
29786SOL     OW94204   9.423   8.185   3.459
29786SOL    HW194205   9.511   8.172   3.504
29786SOL    HW294206   9.410   8.282   3.437
29787SOL     OW94207   9.923   8.813   2.588
29787SOL    HW194208   9.874   8.726   2.597
29787SOL    HW294209   9.900   8.856   2.501
29788SOL     OW94210   9.507   8.424   3.126
29788SOL    HW194211   9.596   8.379   3.112
29788SOL    HW294212   9.434   8.359   3.107
29789SOL     OW94213   9.627   7.699   3.663
29789SOL    HW194214   9.698   7.770   3.669
29789SOL    HW294215   9.539   7.738   3.691
29790SOL     OW94216   9.908   8.177   2.132
29790SOL    HW194217   9.932   8.246   2.064
29790SOL    HW294218   9.830   8.210   2.186
29791SOL     OW94219   9.386   8.259   2.651
29791SOL    HW194220   9.485   8.247   2.660
29791SOL    HW294221   9.362   8.354   2.672
29792SOL     OW94222   9.860   7.644   2.747
29792SOL    HW194223   9.855   7.639   2.847
29792SOL    HW294224   9.862   7.740   2.718
29793SOL     OW94225   9.661   9.249   2.715
29793SOL    HW194226   9.711   9.163   2.721
29793SOL    HW294227   9.726   9.326   2.712
29794SOL     OW94228   9.631   8.391   2.104
29794SOL    HW194229   9.713   8.430   2.062
29794SOL    HW294230   9.604   8.309   2.055
29795SOL     OW94231   9.771   8.714   3.589
29795SOL    HW194232   9.721   8.715   3.503
29795SOL    HW294233   9.708   8.696   3.665
29796SOL     OW94234   9.512   7.733   3.360
29796SOL    HW194235   9.432   7.793   3.347
29796SOL    HW294236   9.502   7.684   3.446
29797SOL     OW94237   9.774   9.191   2.185
29797SOL    HW194238   9.807   9.230   2.271
29797SOL    HW294239   9.850   9.184   2.120
29798SOL     OW94240   9.559   9.233   3.103
29798SOL    HW194241   9.616   9.168   3.153
29798SOL    HW294242   9.543   9.200   3.010
29799SOL     OW94243   9.692   8.148   2.342
29799SOL    HW194244   9.737   8.058   2.339
29799SOL    HW294245   9.598   8.137   2.375
29800SOL     OW94246  10.113   8.850   2.786
29800SOL    HW194247  10.203   8.864   2.744
29800SOL    HW294248  10.042   8.852   2.715
29801SOL     OW94249   9.849   7.512   2.374
29801SOL    HW194250   9.768   7.513   2.432
29801SOL    HW294251   9.852   7.595   2.319
29802SOL     OW94252   9.607   7.483   2.033
29802SOL    HW194253   9.656   7.567   2.012
29802SOL    HW294254   9.669   7.418   2.078
29803SOL     OW94255   9.769   8.600   2.603
29803SOL    HW194256   9.698   8.573   2.668
29803SOL    HW294257   9.743   8.572   2.510
29804SOL     OW94258   9.871   7.670   3.009
29804SOL    HW194259   9.909   7.586   3.046
29804SOL    HW294260   9.783   7.689   3.053
29805SOL     OW94261   9.837   7.704   2.190
29805SOL    HW194262   9.864   7.645   2.115
29805SOL    HW294263   9.837   7.799   2.159
29806SOL     OW94264   9.720   8.261   3.113
29806SOL    HW194265   9.806   8.273   3.163
29806SOL    HW294266   9.678   8.174   3.140
29807SOL     OW94267   9.677   8.548   2.363
29807SOL    HW194268   9.670   8.631   2.307
29807SOL    HW294269   9.681   8.468   2.303
29808SOL     OW94270   9.876   7.985   2.727
29808SOL    HW194271   9.888   8.051   2.653
29808SOL    HW294272   9.922   8.019   2.810
29809SOL     OW94273   9.712   8.199   3.460
29809SOL    HW194274   9.780   8.254   3.413
29809SOL    HW294275   9.752   8.111   3.487
29810SOL     OW94276   9.814   7.498   3.602
29810SOL    HW194277   9.772   7.441   3.532
29810SOL    HW294278   9.748   7.567   3.634
29811SOL     OW94279   9.883   8.318   2.891
29811SOL    HW194280   9.927   8.407   2.882
29811SOL    HW294281   9.820   8.318   2.968
29812SOL     OW94282   9.617   7.661   3.093
29812SOL    HW194283   9.594   7.698   3.183
29812SOL    HW294284   9.587   7.566   3.087
29813SOL     OW94285   9.347   8.758   3.144
29813SOL    HW194286   9.400   8.709   3.212
29813SOL    HW294287   9.369   8.856   3.149
29814SOL     OW94288   9.617   7.511   2.480
29814SOL    HW194289   9.606   7.605   2.513
29814SOL    HW294290   9.612   7.448   2.557
29815SOL     OW94291   9.629   8.258   2.811
29815SOL    HW194292   9.722   8.294   2.816
29815SOL    HW294293   9.623   8.173   2.863
29816SOL     OW94294   9.649   7.957   2.868
29816SOL    HW194295   9.597   7.874   2.851
29816SOL    HW294296   9.726   7.962   2.804
29817SOL     OW94297   9.318   8.774   2.062
29817SOL    HW194298   9.225   8.795   2.031
29817SOL    HW294299   9.328   8.675   2.075
29818SOL     OW94300   9.398   9.249   2.789
29818SOL    HW194301   9.356   9.163   2.762
29818SOL    HW294302   9.492   9.252   2.755
29819SOL     OW94303   9.814   9.016   2.772
29819SOL    HW194304   9.880   9.090   2.781
29819SOL    HW294305   9.858   8.937   2.730
29820SOL     OW94306   9.499   7.968   3.584
29820SOL    HW194307   9.558   7.928   3.514
29820SOL    HW294308   9.441   8.039   3.543
29821SOL     OW94309   9.783   7.948   2.053
29821SOL    HW194310   9.844   8.028   2.057
29821SOL    HW294311   9.688   7.979   2.060
29822SOL     OW94312   9.469   8.585   3.328
29822SOL    HW194313   9.491   8.524   3.404
29822SOL    HW294314   9.479   8.536   3.242
29823SOL     OW94315   9.440   9.242   3.713
29823SOL    HW194316   9.399   9.168   3.766
29823SOL    HW294317   9.504   9.293   3.771
29824SOL     OW94318   9.573   7.774   2.582
29824SOL    HW194319   9.494   7.825   2.548
29824SOL    HW294320   9.564   7.759   2.680
29825SOL     OW94321   9.682   8.736   3.352
29825SOL    HW194322   9.669   8.829   3.318
29825SOL    HW294323   9.598   8.684   3.339
29826SOL     OW94324   9.900   8.935   2.353
29826SOL    HW194325   9.942   8.877   2.283
29826SOL    HW294326   9.856   9.014   2.309
29827SOL     OW94327   9.565   8.796   2.152
29827SOL    HW194328   9.469   8.797   2.125
29827SOL    HW294329   9.577   8.849   2.236
29828SOL     OW94330   9.982   7.651   3.351
29828SOL    HW194331  10.072   7.635   3.311
29828SOL    HW294332   9.990   7.656   3.450
29829SOL     OW94333   9.385   7.793   1.895
29829SOL    HW194334   9.293   7.765   1.866
29829SOL    HW294335   9.416   7.870   1.839
29830SOL     OW94336   9.382   7.614   2.180
29830SOL    HW194337   9.365   7.697   2.126
29830SOL    HW294338   9.472   7.577   2.158
29831SOL     OW94339   9.923   8.290   3.293
29831SOL    HW194340   9.979   8.371   3.276
29831SOL    HW294341   9.982   8.210   3.296
29832SOL     OW94342   9.904   8.193   2.514
29832SOL    HW194343   9.954   8.278   2.495
29832SOL    HW294344   9.816   8.195   2.466
29833SOL     OW94345   9.982   8.839   3.486
29833SOL    HW194346   9.904   8.789   3.524
29833SOL    HW294347   9.979   8.934   3.517
29834SOL     OW94348   9.738   7.872   2.382
29834SOL    HW194349   9.768   7.800   2.320
29834SOL    HW294350   9.699   7.832   2.465
29835SOL     OW94351   9.627   7.995   3.142
29835SOL    HW194352   9.665   7.936   3.214
29835SOL    HW294353   9.667   7.969   3.054
29836SOL     OW94354   9.349   8.525   2.162
29836SOL    HW194355   9.448   8.514   2.153
29836SOL    HW294356   9.309   8.439   2.194
29837SOL     OW94357   9.540   8.076   3.837
29837SOL    HW194358   9.447   8.074   3.874
29837SOL    HW294359   9.541   8.037   3.745
29838SOL     OW94360   9.535   7.723   4.720
29838SOL    HW194361   9.570   7.706   4.812
29838SOL    HW294362   9.447   7.678   4.708
29839SOL     OW94363   9.329   7.816   4.371
29839SOL    HW194364   9.247   7.859   4.410
29839SOL    HW294365   9.301   7.743   4.308
29840SOL     OW94366   9.879   8.723   4.889
29840SOL    HW194367   9.786   8.716   4.852
29840SOL    HW294368   9.890   8.812   4.933
29841SOL     OW94369  10.160   8.246   5.547
29841SOL    HW194370  10.156   8.322   5.612
29841SOL    HW294371  10.182   8.282   5.456
29842SOL     OW94372   9.645   8.883   4.785
29842SOL    HW194373   9.567   8.852   4.732
29842SOL    HW294374   9.703   8.941   4.728
29843SOL     OW94375   9.748   7.840   5.223
29843SOL    HW194376   9.830   7.784   5.232
29843SOL    HW294377   9.667   7.782   5.227
29844SOL     OW94378   9.541   9.161   4.207
29844SOL    HW194379   9.575   9.238   4.261
29844SOL    HW294380   9.585   9.161   4.117
29845SOL     OW94381   9.540   8.882   4.262
29845SOL    HW194382   9.514   8.978   4.262
29845SOL    HW294383   9.469   8.828   4.307
29846SOL     OW94384   9.550   8.539   4.610
29846SOL    HW194385   9.564   8.455   4.662
29846SOL    HW294386   9.495   8.603   4.665
29847SOL     OW94387   9.432   8.091   4.287
29847SOL    HW194388   9.387   8.003   4.304
29847SOL    HW294389   9.431   8.145   4.371
29848SOL     OW94390   9.337   9.044   3.841
29848SOL    HW194391   9.318   8.948   3.862
29848SOL    HW294392   9.304   9.102   3.916
29849SOL     OW94393   9.923   8.813   4.450
29849SOL    HW194394   9.874   8.726   4.459
29849SOL    HW294395   9.900   8.856   4.363
29850SOL     OW94396  10.119   7.452   4.226
29850SOL    HW194397  10.159   7.543   4.217
29850SOL    HW294398  10.019   7.460   4.232
29851SOL     OW94399   9.507   8.424   4.988
29851SOL    HW194400   9.596   8.379   4.974
29851SOL    HW294401   9.434   8.359   4.969
29852SOL     OW94402   9.627   7.699   5.525
29852SOL    HW194403   9.698   7.770   5.531
29852SOL    HW294404   9.539   7.738   5.553
29853SOL     OW94405   9.908   8.177   3.994
29853SOL    HW194406   9.932   8.246   3.926
29853SOL    HW294407   9.830   8.210   4.048
29854SOL     OW94408   9.386   8.259   4.513
29854SOL    HW194409   9.485   8.247   4.522
29854SOL    HW294410   9.362   8.354   4.534
29855SOL     OW94411   9.440   9.269   5.295
29855SOL    HW194412   9.430   9.254   5.394
29855SOL    HW294413   9.354   9.305   5.259
29856SOL     OW94414  10.175   7.796   3.919
29856SOL    HW194415  10.234   7.859   3.870
29856SOL    HW294416  10.194   7.702   3.890
29857SOL     OW94417   9.860   7.644   4.609
29857SOL    HW194418   9.855   7.639   4.709
29857SOL    HW294419   9.862   7.740   4.580
29858SOL     OW94420   9.771   8.714   5.451
29858SOL    HW194421   9.721   8.715   5.365
29858SOL    HW294422   9.708   8.696   5.527
29859SOL     OW94423   9.512   7.733   5.222
29859SOL    HW194424   9.432   7.793   5.209
29859SOL    HW294425   9.502   7.684   5.308
29860SOL     OW94426   9.559   9.233   4.965
29860SOL    HW194427   9.616   9.168   5.015
29860SOL    HW294428   9.543   9.200   4.872
29861SOL     OW94429   9.692   8.148   4.204
29861SOL    HW194430   9.737   8.058   4.201
29861SOL    HW294431   9.598   8.137   4.237
29862SOL     OW94432   9.924   7.570   3.841
29862SOL    HW194433  10.022   7.548   3.848
29862SOL    HW294434   9.893   7.553   3.748
29863SOL     OW94435  10.113   8.850   4.648
29863SOL    HW194436  10.203   8.864   4.606
29863SOL    HW294437  10.042   8.852   4.577
29864SOL     OW94438   9.849   7.512   4.236
29864SOL    HW194439   9.768   7.513   4.294
29864SOL    HW294440   9.852   7.595   4.181
29865SOL     OW94441   9.607   7.483   3.895
29865SOL    HW194442   9.656   7.567   3.874
29865SOL    HW294443   9.669   7.418   3.940
29866SOL     OW94444  10.245   7.684   4.204
29866SOL    HW194445  10.197   7.725   4.126
29866SOL    HW294446  10.344   7.682   4.185
29867SOL     OW94447   9.769   8.600   4.465
29867SOL    HW194448   9.698   8.573   4.530
29867SOL    HW294449   9.743   8.572   4.372
29868SOL     OW94450   9.388   8.004   5.110
29868SOL    HW194451   9.480   8.003   5.069
29868SOL    HW294452   9.382   8.078   5.177
29869SOL     OW94453   9.871   7.670   4.871
29869SOL    HW194454   9.909   7.586   4.908
29869SOL    HW294455   9.783   7.689   4.915
29870SOL     OW94456   9.837   7.704   4.052
29870SOL    HW194457   9.864   7.645   3.977
29870SOL    HW294458   9.837   7.799   4.021
29871SOL     OW94459   9.720   8.261   4.975
29871SOL    HW194460   9.806   8.273   5.025
29871SOL    HW294461   9.678   8.174   5.002
29872SOL     OW94462   9.374   9.012   5.055
29872SOL    HW194463   9.328   9.094   5.021
29872SOL    HW294464   9.472   9.031   5.064
29873SOL     OW94465   9.876   7.985   4.589
29873SOL    HW194466   9.888   8.051   4.515
29873SOL    HW294467   9.922   8.019   4.672
29874SOL     OW94468   9.664   8.958   5.053
29874SOL    HW194469   9.643   8.914   4.966
29874SOL    HW294470   9.761   8.984   5.056
29875SOL     OW94471   9.712   8.199   5.322
29875SOL    HW194472   9.780   8.254   5.275
29875SOL    HW294473   9.752   8.111   5.349
29876SOL     OW94474   9.814   7.498   5.464
29876SOL    HW194475   9.772   7.441   5.394
29876SOL    HW294476   9.748   7.567   5.496
29877SOL     OW94477   9.883   8.318   4.753
29877SOL    HW194478   9.927   8.407   4.744
29877SOL    HW294479   9.820   8.318   4.830
29878SOL     OW94480   9.617   7.661   4.955
29878SOL    HW194481   9.594   7.698   5.045
29878SOL    HW294482   9.587   7.566   4.949
29879SOL     OW94483   9.347   8.758   5.006
29879SOL    HW194484   9.400   8.709   5.074
29879SOL    HW294485   9.369   8.856   5.011
29880SOL     OW94486   9.617   7.511   4.342
29880SOL    HW194487   9.606   7.605   4.375
29880SOL    HW294488   9.612   7.448   4.419
29881SOL     OW94489   9.660   8.346   5.528
29881SOL    HW194490   9.736   8.390   5.576
29881SOL    HW294491   9.695   8.299   5.446
29882SOL     OW94492   9.629   8.258   4.673
29882SOL    HW194493   9.722   8.294   4.678
29882SOL    HW294494   9.623   8.173   4.725
29883SOL     OW94495   9.649   7.957   4.730
29883SOL    HW194496   9.597   7.874   4.713
29883SOL    HW294497   9.726   7.962   4.666
29884SOL     OW94498   9.318   8.774   3.924
29884SOL    HW194499   9.225   8.795   3.893
29884SOL    HW294500   9.328   8.675   3.937
29885SOL     OW94501   9.398   9.249   4.651
29885SOL    HW194502   9.356   9.163   4.624
29885SOL    HW294503   9.492   9.252   4.617
29886SOL     OW94504   9.350   7.992   4.838
29886SOL    HW194505   9.435   7.959   4.797
29886SOL    HW294506   9.363   8.007   4.936
29887SOL     OW94507   9.499   7.968   5.446
29887SOL    HW194508   9.558   7.928   5.376
29887SOL    HW294509   9.441   8.039   5.405
29888SOL     OW94510  10.125   8.020   4.049
29888SOL    HW194511  10.132   7.931   4.003
29888SOL    HW294512  10.031   8.054   4.041
29889SOL     OW94513   9.562   9.012   5.468
29889SOL    HW194514   9.532   9.069   5.544
29889SOL    HW294515   9.555   8.915   5.494
29890SOL     OW94516   9.783   7.948   3.915
29890SOL    HW194517   9.844   8.028   3.919
29890SOL    HW294518   9.688   7.979   3.922
29891SOL     OW94519   9.469   8.585   5.190
29891SOL    HW194520   9.491   8.524   5.266
29891SOL    HW294521   9.479   8.536   5.104
29892SOL     OW94522   9.393   8.706   4.746
29892SOL    HW194523   9.388   8.705   4.846
29892SOL    HW294524   9.310   8.665   4.708
29893SOL     OW94525   9.998   9.110   5.440
29893SOL    HW194526   9.942   9.191   5.449
29893SOL    HW294527  10.050   9.114   5.354
29894SOL     OW94528   9.573   7.774   4.444
29894SOL    HW194529   9.494   7.825   4.410
29894SOL    HW294530   9.564   7.759   4.542
29895SOL     OW94531   9.682   8.736   5.214
29895SOL    HW194532   9.669   8.829   5.180
29895SOL    HW294533   9.598   8.684   5.201
29896SOL     OW94534   9.900   8.935   4.215
29896SOL    HW194535   9.942   8.877   4.145
29896SOL    HW294536   9.856   9.014   4.171
29897SOL     OW94537   9.565   8.796   4.014
29897SOL    HW194538   9.469   8.797   3.987
29897SOL    HW294539   9.577   8.849   4.098
29898SOL     OW94540   9.415   8.461   5.450
29898SOL    HW194541   9.338   8.428   5.504
29898SOL    HW294542   9.500   8.431   5.492
29899SOL     OW94543   9.982   7.651   5.213
29899SOL    HW194544  10.072   7.635   5.173
29899SOL    HW294545   9.990   7.656   5.312
29900SOL     OW94546   9.382   7.614   4.042
29900SOL    HW194547   9.365   7.697   3.988
29900SOL    HW294548   9.472   7.577   4.020
29901SOL     OW94549   9.923   8.290   5.155
29901SOL    HW194550   9.979   8.371   5.138
29901SOL    HW294551   9.982   8.210   5.158
29902SOL     OW94552   9.700   9.189   5.284
29902SOL    HW194553   9.609   9.230   5.282
29902SOL    HW294554   9.693   9.095   5.316
29903SOL     OW94555   9.904   8.193   4.376
29903SOL    HW194556   9.954   8.278   4.357
29903SOL    HW294557   9.816   8.195   4.328
29904SOL     OW94558   9.531   8.762   5.568
29904SOL    HW194559   9.466   8.689   5.547
29904SOL    HW294560   9.535   8.776   5.666
29905SOL     OW94561   9.389   8.688   4.377
29905SOL    HW194562   9.388   8.641   4.465
29905SOL    HW294563   9.471   8.660   4.326
29906SOL     OW94564   9.982   8.839   5.348
29906SOL    HW194565   9.904   8.789   5.386
29906SOL    HW294566   9.979   8.934   5.379
29907SOL     OW94567   9.738   7.872   4.244
29907SOL    HW194568   9.768   7.800   4.182
29907SOL    HW294569   9.699   7.832   4.327
29908SOL     OW94570   9.627   7.995   5.004
29908SOL    HW194571   9.665   7.936   5.076
29908SOL    HW294572   9.667   7.969   4.916
29909SOL     OW94573   9.349   8.525   4.024
29909SOL    HW194574   9.448   8.514   4.015
29909SOL    HW294575   9.309   8.439   4.056
29910SOL     OW94576   9.540   8.076   5.699
29910SOL    HW194577   9.447   8.074   5.736
29910SOL    HW294578   9.541   8.037   5.607
29911SOL     OW94579   9.535   7.723   6.582
29911SOL    HW194580   9.570   7.706   6.674
29911SOL    HW294581   9.447   7.678   6.570
29912SOL     OW94582   9.329   7.816   6.233
29912SOL    HW194583   9.247   7.859   6.272
29912SOL    HW294584   9.301   7.743   6.170
29913SOL     OW94585   9.645   8.883   6.647
29913SOL    HW194586   9.567   8.852   6.594
29913SOL    HW294587   9.703   8.941   6.590
29914SOL     OW94588   9.540   8.882   6.124
29914SOL    HW194589   9.514   8.978   6.124
29914SOL    HW294590   9.469   8.828   6.169
29915SOL     OW94591   9.550   8.539   6.472
29915SOL    HW194592   9.564   8.455   6.524
29915SOL    HW294593   9.495   8.603   6.527
29916SOL     OW94594   9.432   8.091   6.149
29916SOL    HW194595   9.387   8.003   6.166
29916SOL    HW294596   9.431   8.145   6.233
29917SOL     OW94597   9.337   9.044   5.703
29917SOL    HW194598   9.318   8.948   5.724
29917SOL    HW294599   9.304   9.102   5.778
29918SOL     OW94600   9.423   8.185   7.183
29918SOL    HW194601   9.511   8.172   7.228
29918SOL    HW294602   9.410   8.282   7.161
29919SOL     OW94603   9.923   8.813   6.312
29919SOL    HW194604   9.874   8.726   6.321
29919SOL    HW294605   9.900   8.856   6.225
29920SOL     OW94606  10.119   7.452   6.088
29920SOL    HW194607  10.159   7.543   6.079
29920SOL    HW294608  10.019   7.460   6.094
29921SOL     OW94609   9.507   8.424   6.850
29921SOL    HW194610   9.596   8.379   6.836
29921SOL    HW294611   9.434   8.359   6.831
29922SOL     OW94612   9.627   7.699   7.387
29922SOL    HW194613   9.698   7.770   7.393
29922SOL    HW294614   9.539   7.738   7.415
29923SOL     OW94615   9.908   8.177   5.856
29923SOL    HW194616   9.932   8.246   5.788
29923SOL    HW294617   9.830   8.210   5.910
29924SOL     OW94618   9.386   8.259   6.375
29924SOL    HW194619   9.485   8.247   6.384
29924SOL    HW294620   9.362   8.354   6.396
29925SOL     OW94621   9.440   9.269   7.157
29925SOL    HW194622   9.430   9.254   7.256
29925SOL    HW294623   9.354   9.305   7.121
29926SOL     OW94624  10.175   7.796   5.781
29926SOL    HW194625  10.234   7.859   5.732
29926SOL    HW294626  10.194   7.702   5.752
29927SOL     OW94627   9.860   7.644   6.471
29927SOL    HW194628   9.855   7.639   6.571
29927SOL    HW294629   9.862   7.740   6.442
29928SOL     OW94630   9.661   9.249   6.439
29928SOL    HW194631   9.711   9.163   6.445
29928SOL    HW294632   9.726   9.326   6.436
29929SOL     OW94633   9.631   8.391   5.828
29929SOL    HW194634   9.713   8.430   5.786
29929SOL    HW294635   9.604   8.309   5.779
29930SOL     OW94636   9.771   8.714   7.313
29930SOL    HW194637   9.721   8.715   7.227
29930SOL    HW294638   9.708   8.696   7.389
29931SOL     OW94639   9.512   7.733   7.084
29931SOL    HW194640   9.432   7.793   7.071
29931SOL    HW294641   9.502   7.684   7.170
29932SOL     OW94642   9.559   9.233   6.827
29932SOL    HW194643   9.616   9.168   6.877
29932SOL    HW294644   9.543   9.200   6.734
29933SOL     OW94645   9.692   8.148   6.066
29933SOL    HW194646   9.737   8.058   6.063
29933SOL    HW294647   9.598   8.137   6.099
29934SOL     OW94648   9.924   7.570   5.703
29934SOL    HW194649  10.022   7.548   5.710
29934SOL    HW294650   9.893   7.553   5.610
29935SOL     OW94651  10.113   8.850   6.510
29935SOL    HW194652  10.203   8.864   6.468
29935SOL    HW294653  10.042   8.852   6.439
29936SOL     OW94654   9.849   7.512   6.098
29936SOL    HW194655   9.768   7.513   6.156
29936SOL    HW294656   9.852   7.595   6.043
29937SOL     OW94657   9.607   7.483   5.757
29937SOL    HW194658   9.656   7.567   5.736
29937SOL    HW294659   9.669   7.418   5.802
29938SOL     OW94660  10.245   7.684   6.066
29938SOL    HW194661  10.197   7.725   5.988
29938SOL    HW294662  10.344   7.682   6.047
29939SOL     OW94663   9.769   8.600   6.327
29939SOL    HW194664   9.698   8.573   6.392
29939SOL    HW294665   9.743   8.572   6.234
29940SOL     OW94666   9.388   8.004   6.972
29940SOL    HW194667   9.480   8.003   6.931
29940SOL    HW294668   9.382   8.078   7.039
29941SOL     OW94669   9.871   7.670   6.733
29941SOL    HW194670   9.909   7.586   6.770
29941SOL    HW294671   9.783   7.689   6.777
29942SOL     OW94672   9.837   7.704   5.914
29942SOL    HW194673   9.864   7.645   5.839
29942SOL    HW294674   9.837   7.799   5.883
29943SOL     OW94675   9.720   8.261   6.837
29943SOL    HW194676   9.806   8.273   6.887
29943SOL    HW294677   9.678   8.174   6.864
29944SOL     OW94678   9.374   9.012   6.917
29944SOL    HW194679   9.328   9.094   6.883
29944SOL    HW294680   9.472   9.031   6.926
29945SOL     OW94681   9.677   8.548   6.087
29945SOL    HW194682   9.670   8.631   6.031
29945SOL    HW294683   9.681   8.468   6.027
29946SOL     OW94684   9.876   7.985   6.451
29946SOL    HW194685   9.888   8.051   6.377
29946SOL    HW294686   9.922   8.019   6.534
29947SOL     OW94687   9.814   7.498   7.326
29947SOL    HW194688   9.772   7.441   7.256
29947SOL    HW294689   9.748   7.567   7.358
29948SOL     OW94690   9.883   8.318   6.615
29948SOL    HW194691   9.927   8.407   6.606
29948SOL    HW294692   9.820   8.318   6.692
29949SOL     OW94693   9.617   7.661   6.817
29949SOL    HW194694   9.594   7.698   6.907
29949SOL    HW294695   9.587   7.566   6.811
29950SOL     OW94696   9.347   8.758   6.868
29950SOL    HW194697   9.400   8.709   6.936
29950SOL    HW294698   9.369   8.856   6.873
29951SOL     OW94699   9.617   7.511   6.204
29951SOL    HW194700   9.606   7.605   6.237
29951SOL    HW294701   9.612   7.448   6.281
29952SOL     OW94702   9.660   8.346   7.390
29952SOL    HW194703   9.736   8.390   7.438
29952SOL    HW294704   9.695   8.299   7.308
29953SOL     OW94705   9.629   8.258   6.535
29953SOL    HW194706   9.722   8.294   6.540
29953SOL    HW294707   9.623   8.173   6.587
29954SOL     OW94708   9.649   7.957   6.592
29954SOL    HW194709   9.597   7.874   6.575
29954SOL    HW294710   9.726   7.962   6.528
29955SOL     OW94711   9.318   8.774   5.786
29955SOL    HW194712   9.225   8.795   5.755
29955SOL    HW294713   9.328   8.675   5.799
29956SOL     OW94714   9.398   9.249   6.513
29956SOL    HW194715   9.356   9.163   6.486
29956SOL    HW294716   9.492   9.252   6.479
29957SOL     OW94717   9.814   9.016   6.496
29957SOL    HW194718   9.880   9.090   6.505
29957SOL    HW294719   9.858   8.937   6.454
29958SOL     OW94720   9.350   7.992   6.700
29958SOL    HW194721   9.435   7.959   6.659
29958SOL    HW294722   9.363   8.007   6.798
29959SOL     OW94723  10.125   8.020   5.911
29959SOL    HW194724  10.132   7.931   5.865
29959SOL    HW294725  10.031   8.054   5.903
29960SOL     OW94726   9.562   9.012   7.330
29960SOL    HW194727   9.532   9.069   7.406
29960SOL    HW294728   9.555   8.915   7.356
29961SOL     OW94729   9.783   7.948   5.777
29961SOL    HW194730   9.844   8.028   5.781
29961SOL    HW294731   9.688   7.979   5.784
29962SOL     OW94732   9.469   8.585   7.052
29962SOL    HW194733   9.491   8.524   7.128
29962SOL    HW294734   9.479   8.536   6.966
29963SOL     OW94735   9.393   8.706   6.608
29963SOL    HW194736   9.388   8.705   6.708
29963SOL    HW294737   9.310   8.665   6.570
29964SOL     OW94738   9.440   9.242   7.437
29964SOL    HW194739   9.399   9.168   7.490
29964SOL    HW294740   9.504   9.293   7.495
29965SOL     OW94741   9.573   7.774   6.306
29965SOL    HW194742   9.494   7.825   6.272
29965SOL    HW294743   9.564   7.759   6.404
29966SOL     OW94744   9.682   8.736   7.076
29966SOL    HW194745   9.669   8.829   7.042
29966SOL    HW294746   9.598   8.684   7.063
29967SOL     OW94747   9.900   8.935   6.077
29967SOL    HW194748   9.942   8.877   6.007
29967SOL    HW294749   9.856   9.014   6.033
29968SOL     OW94750   9.565   8.796   5.876
29968SOL    HW194751   9.469   8.797   5.849
29968SOL    HW294752   9.577   8.849   5.960
29969SOL     OW94753   9.415   8.461   7.312
29969SOL    HW194754   9.338   8.428   7.366
29969SOL    HW294755   9.500   8.431   7.354
29970SOL     OW94756   9.385   7.793   5.619
29970SOL    HW194757   9.293   7.765   5.590
29970SOL    HW294758   9.416   7.870   5.563
29971SOL     OW94759   9.382   7.614   5.904
29971SOL    HW194760   9.365   7.697   5.850
29971SOL    HW294761   9.472   7.577   5.882
29972SOL     OW94762   9.923   8.290   7.017
29972SOL    HW194763   9.979   8.371   7.000
29972SOL    HW294764   9.982   8.210   7.020
29973SOL     OW94765   9.700   9.189   7.146
29973SOL    HW194766   9.609   9.230   7.144
29973SOL    HW294767   9.693   9.095   7.178
29974SOL     OW94768   9.904   8.193   6.238
29974SOL    HW194769   9.954   8.278   6.219
29974SOL    HW294770   9.816   8.195   6.190
29975SOL     OW94771   9.531   8.762   7.430
29975SOL    HW194772   9.466   8.689   7.409
29975SOL    HW294773   9.535   8.776   7.528
29976SOL     OW94774   9.389   8.688   6.239
29976SOL    HW194775   9.388   8.641   6.327
29976SOL    HW294776   9.471   8.660   6.188
29977SOL     OW94777   9.982   8.839   7.210
29977SOL    HW194778   9.904   8.789   7.248
29977SOL    HW294779   9.979   8.934   7.241
29978SOL     OW94780   9.738   7.872   6.106
29978SOL    HW194781   9.768   7.800   6.044
29978SOL    HW294782   9.699   7.832   6.189
29979SOL     OW94783   9.627   7.995   6.866
29979SOL    HW194784   9.665   7.936   6.938
29979SOL    HW294785   9.667   7.969   6.778
29980SOL     OW94786   9.349   8.525   5.886
29980SOL    HW194787   9.448   8.514   5.877
29980SOL    HW294788   9.309   8.439   5.918
29981SOL     OW94789   9.540   8.076   7.561
29981SOL    HW194790   9.447   8.074   7.598
29981SOL    HW294791   9.541   8.037   7.469
29982SOL     OW94792   9.535   7.723   8.444
29982SOL    HW194793   9.570   7.706   8.536
29982SOL    HW294794   9.447   7.678   8.432
29983SOL     OW94795   9.329   7.816   8.095
29983SOL    HW194796   9.247   7.859   8.134
29983SOL    HW294797   9.301   7.743   8.032
29984SOL     OW94798   9.879   8.723   8.613
29984SOL    HW194799   9.786   8.716   8.576
29984SOL    HW294800   9.890   8.812   8.657
29985SOL     OW94801  10.160   8.246   9.271
29985SOL    HW194802  10.156   8.322   9.336
29985SOL    HW294803  10.182   8.282   9.180
29986SOL     OW94804   9.748   7.840   8.947
29986SOL    HW194805   9.830   7.784   8.956
29986SOL    HW294806   9.667   7.782   8.951
29987SOL     OW94807   9.541   9.161   7.931
29987SOL    HW194808   9.575   9.238   7.985
29987SOL    HW294809   9.585   9.161   7.841
29988SOL     OW94810   9.540   8.882   7.986
29988SOL    HW194811   9.514   8.978   7.986
29988SOL    HW294812   9.469   8.828   8.031
29989SOL     OW94813   9.550   8.539   8.334
29989SOL    HW194814   9.564   8.455   8.386
29989SOL    HW294815   9.495   8.603   8.389
29990SOL     OW94816   9.432   8.091   8.011
29990SOL    HW194817   9.387   8.003   8.028
29990SOL    HW294818   9.431   8.145   8.095
29991SOL     OW94819   9.337   9.044   7.565
29991SOL    HW194820   9.318   8.948   7.586
29991SOL    HW294821   9.304   9.102   7.640
29992SOL     OW94822   9.423   8.185   9.045
29992SOL    HW194823   9.511   8.172   9.090
29992SOL    HW294824   9.410   8.282   9.023
29993SOL     OW94825   9.923   8.813   8.174
29993SOL    HW194826   9.874   8.726   8.183
29993SOL    HW294827   9.900   8.856   8.087
29994SOL     OW94828  10.119   7.452   7.950
29994SOL    HW194829  10.159   7.543   7.941
29994SOL    HW294830  10.019   7.460   7.956
29995SOL     OW94831   9.507   8.424   8.712
29995SOL    HW194832   9.596   8.379   8.698
29995SOL    HW294833   9.434   8.359   8.693
29996SOL     OW94834   9.627   7.699   9.249
29996SOL    HW194835   9.698   7.770   9.255
29996SOL    HW294836   9.539   7.738   9.277
29997SOL     OW94837   9.386   8.259   8.237
29997SOL    HW194838   9.485   8.247   8.246
29997SOL    HW294839   9.362   8.354   8.258
29998SOL     OW94840   9.440   9.269   9.019
29998SOL    HW194841   9.430   9.254   9.118
29998SOL    HW294842   9.354   9.305   8.983
29999SOL     OW94843  10.175   7.796   7.643
29999SOL    HW194844  10.234   7.859   7.594
29999SOL    HW294845  10.194   7.702   7.614
30000SOL     OW94846   9.860   7.644   8.333
30000SOL    HW194847   9.855   7.639   8.433
30000SOL    HW294848   9.862   7.740   8.304
30001SOL     OW94849   9.631   8.391   7.690
30001SOL    HW194850   9.713   8.430   7.648
30001SOL    HW294851   9.604   8.309   7.641
30002SOL     OW94852   9.771   8.714   9.175
30002SOL    HW194853   9.721   8.715   9.089
30002SOL    HW294854   9.708   8.696   9.251
30003SOL     OW94855   9.512   7.733   8.946
30003SOL    HW194856   9.432   7.793   8.933
30003SOL    HW294857   9.502   7.684   9.032
30004SOL     OW94858   9.774   9.191   7.771
30004SOL    HW194859   9.807   9.230   7.857
30004SOL    HW294860   9.850   9.184   7.706
30005SOL     OW94861   9.692   8.148   7.928
30005SOL    HW194862   9.737   8.058   7.925
30005SOL    HW294863   9.598   8.137   7.961
30006SOL     OW94864   9.924   7.570   7.565
30006SOL    HW194865  10.022   7.548   7.572
30006SOL    HW294866   9.893   7.553   7.472
30007SOL     OW94867  10.113   8.850   8.372
30007SOL    HW194868  10.203   8.864   8.330
30007SOL    HW294869  10.042   8.852   8.301
30008SOL     OW94870   9.849   7.512   7.960
30008SOL    HW194871   9.768   7.513   8.018
30008SOL    HW294872   9.852   7.595   7.905
30009SOL     OW94873   9.607   7.483   7.619
30009SOL    HW194874   9.656   7.567   7.598
30009SOL    HW294875   9.669   7.418   7.664
30010SOL     OW94876  10.245   7.684   7.928
30010SOL    HW194877  10.197   7.725   7.850
30010SOL    HW294878  10.344   7.682   7.909
30011SOL     OW94879   9.769   8.600   8.189
30011SOL    HW194880   9.698   8.573   8.254
30011SOL    HW294881   9.743   8.572   8.096
30012SOL     OW94882   9.388   8.004   8.834
30012SOL    HW194883   9.480   8.003   8.793
30012SOL    HW294884   9.382   8.078   8.901
30013SOL     OW94885   9.871   7.670   8.595
30013SOL    HW194886   9.909   7.586   8.632
30013SOL    HW294887   9.783   7.689   8.639
30014SOL     OW94888   9.837   7.704   7.776
30014SOL    HW194889   9.864   7.645   7.701
30014SOL    HW294890   9.837   7.799   7.745
30015SOL     OW94891   9.720   8.261   8.699
30015SOL    HW194892   9.806   8.273   8.749
30015SOL    HW294893   9.678   8.174   8.726
30016SOL     OW94894   9.374   9.012   8.779
30016SOL    HW194895   9.328   9.094   8.745
30016SOL    HW294896   9.472   9.031   8.788
30017SOL     OW94897   9.677   8.548   7.949
30017SOL    HW194898   9.670   8.631   7.893
30017SOL    HW294899   9.681   8.468   7.889
30018SOL     OW94900   9.876   7.985   8.313
30018SOL    HW194901   9.888   8.051   8.239
30018SOL    HW294902   9.922   8.019   8.396
30019SOL     OW94903   9.712   8.199   9.046
30019SOL    HW194904   9.780   8.254   8.999
30019SOL    HW294905   9.752   8.111   9.073
30020SOL     OW94906   9.814   7.498   9.188
30020SOL    HW194907   9.772   7.441   9.118
30020SOL    HW294908   9.748   7.567   9.220
30021SOL     OW94909   9.883   8.318   8.477
30021SOL    HW194910   9.927   8.407   8.468
30021SOL    HW294911   9.820   8.318   8.554
30022SOL     OW94912   9.617   7.661   8.679
30022SOL    HW194913   9.594   7.698   8.769
30022SOL    HW294914   9.587   7.566   8.673
30023SOL     OW94915   9.347   8.758   8.730
30023SOL    HW194916   9.400   8.709   8.798
30023SOL    HW294917   9.369   8.856   8.735
30024SOL     OW94918   9.617   7.511   8.066
30024SOL    HW194919   9.606   7.605   8.099
30024SOL    HW294920   9.612   7.448   8.143
30025SOL     OW94921   9.660   8.346   9.252
30025SOL    HW194922   9.736   8.390   9.300
30025SOL    HW294923   9.695   8.299   9.170
30026SOL     OW94924   9.629   8.258   8.397
30026SOL    HW194925   9.722   8.294   8.402
30026SOL    HW294926   9.623   8.173   8.449
30027SOL     OW94927   9.318   8.774   7.648
30027SOL    HW194928   9.225   8.795   7.617
30027SOL    HW294929   9.328   8.675   7.661
30028SOL     OW94930   9.814   9.016   8.358
30028SOL    HW194931   9.880   9.090   8.367
30028SOL    HW294932   9.858   8.937   8.316
30029SOL     OW94933   9.350   7.992   8.562
30029SOL    HW194934   9.435   7.959   8.521
30029SOL    HW294935   9.363   8.007   8.660
30030SOL     OW94936   9.499   7.968   9.170
30030SOL    HW194937   9.558   7.928   9.100
30030SOL    HW294938   9.441   8.039   9.129
30031SOL     OW94939  10.125   8.020   7.773
30031SOL    HW194940  10.132   7.931   7.727
30031SOL    HW294941  10.031   8.054   7.765
30032SOL     OW94942   9.562   9.012   9.192
30032SOL    HW194943   9.532   9.069   9.268
30032SOL    HW294944   9.555   8.915   9.218
30033SOL     OW94945   9.783   7.948   7.639
30033SOL    HW194946   9.844   8.028   7.643
30033SOL    HW294947   9.688   7.979   7.646
30034SOL     OW94948   9.469   8.585   8.914
30034SOL    HW194949   9.491   8.524   8.990
30034SOL    HW294950   9.479   8.536   8.828
30035SOL     OW94951   9.393   8.706   8.470
30035SOL    HW194952   9.388   8.705   8.570
30035SOL    HW294953   9.310   8.665   8.432
30036SOL     OW94954   9.998   9.110   9.164
30036SOL    HW194955   9.942   9.191   9.173
30036SOL    HW294956  10.050   9.114   9.078
30037SOL     OW94957   9.440   9.242   9.299
30037SOL    HW194958   9.399   9.168   9.352
30037SOL    HW294959   9.504   9.293   9.357
30038SOL     OW94960   9.573   7.774   8.168
30038SOL    HW194961   9.494   7.825   8.134
30038SOL    HW294962   9.564   7.759   8.266
30039SOL     OW94963   9.682   8.736   8.938
30039SOL    HW194964   9.669   8.829   8.904
30039SOL    HW294965   9.598   8.684   8.925
30040SOL     OW94966   9.900   8.935   7.939
30040SOL    HW194967   9.942   8.877   7.869
30040SOL    HW294968   9.856   9.014   7.895
30041SOL     OW94969   9.565   8.796   7.738
30041SOL    HW194970   9.469   8.797   7.711
30041SOL    HW294971   9.577   8.849   7.822
30042SOL     OW94972   9.415   8.461   9.174
30042SOL    HW194973   9.338   8.428   9.228
30042SOL    HW294974   9.500   8.431   9.216
30043SOL     OW94975   9.982   7.651   8.937
30043SOL    HW194976  10.072   7.635   8.897
30043SOL    HW294977   9.990   7.656   9.036
30044SOL     OW94978   9.385   7.793   7.481
30044SOL    HW194979   9.293   7.765   7.452
30044SOL    HW294980   9.416   7.870   7.425
30045SOL     OW94981   9.923   8.290   8.879
30045SOL    HW194982   9.979   8.371   8.862
30045SOL    HW294983   9.982   8.210   8.882
30046SOL     OW94984   9.700   9.189   9.008
30046SOL    HW194985   9.609   9.230   9.006
30046SOL    HW294986   9.693   9.095   9.040
30047SOL     OW94987   9.904   8.193   8.100
30047SOL    HW194988   9.954   8.278   8.081
30047SOL    HW294989   9.816   8.195   8.052
30048SOL     OW94990   9.531   8.762   9.292
30048SOL    HW194991   9.466   8.689   9.271
30048SOL    HW294992   9.535   8.776   9.390
30049SOL     OW94993   9.389   8.688   8.101
30049SOL    HW194994   9.388   8.641   8.189
30049SOL    HW294995   9.471   8.660   8.050
30050SOL     OW94996   9.982   8.839   9.072
30050SOL    HW194997   9.904   8.789   9.110
30050SOL    HW294998   9.979   8.934   9.103
30051SOL     OW94999   9.738   7.872   7.968
30051SOL    HW195000   9.768   7.800   7.906
30051SOL    HW295001   9.699   7.832   8.051
30052SOL     OW95002   9.627   7.995   8.728
30052SOL    HW195003   9.665   7.936   8.800
30052SOL    HW295004   9.667   7.969   8.640
30053SOL     OW95005   9.349   8.525   7.748
30053SOL    HW195006   9.448   8.514   7.739
30053SOL    HW295007   9.309   8.439   7.780
30054SOL     OW95008   9.540   8.076   9.423
30054SOL    HW195009   9.447   8.074   9.460
30054SOL    HW295010   9.541   8.037   9.331
30055SOL     OW95011   9.541   9.161   9.793
30055SOL    HW195012   9.575   9.238   9.847
30055SOL    HW295013   9.585   9.161   9.703
30056SOL     OW95014   9.540   8.882   9.848
30056SOL    HW195015   9.514   8.978   9.848
30056SOL    HW295016   9.469   8.828   9.893
30057SOL     OW95017   9.432   8.091   9.873
30057SOL    HW195018   9.387   8.003   9.890
30057SOL    HW295019   9.431   8.145   9.957
30058SOL     OW95020   9.337   9.044   9.427
30058SOL    HW195021   9.318   8.948   9.448
30058SOL    HW295022   9.304   9.102   9.502
30059SOL     OW95023  10.119   7.452   9.812
30059SOL    HW195024  10.159   7.543   9.803
30059SOL    HW295025  10.019   7.460   9.818
30060SOL     OW95026   9.908   8.177   9.580
30060SOL    HW195027   9.932   8.246   9.512
30060SOL    HW295028   9.830   8.210   9.634
30061SOL     OW95029   9.386   8.259  10.099
30061SOL    HW195030   9.485   8.247  10.108
30061SOL    HW295031   9.362   8.354  10.120
30062SOL     OW95032  10.175   7.796   9.505
30062SOL    HW195033  10.234   7.859   9.456
30062SOL    HW295034  10.194   7.702   9.476
30063SOL     OW95035   9.661   9.249  10.163
30063SOL    HW195036   9.711   9.163  10.169
30063SOL    HW295037   9.726   9.326  10.160
30064SOL     OW95038   9.631   8.391   9.552
30064SOL    HW195039   9.713   8.430   9.510
30064SOL    HW295040   9.604   8.309   9.503
30065SOL     OW95041   9.774   9.191   9.633
30065SOL    HW195042   9.807   9.230   9.719
30065SOL    HW295043   9.850   9.184   9.568
30066SOL     OW95044   9.692   8.148   9.790
30066SOL    HW195045   9.737   8.058   9.787
30066SOL    HW295046   9.598   8.137   9.823
30067SOL     OW95047   9.924   7.570   9.427
30067SOL    HW195048  10.022   7.548   9.434
30067SOL    HW295049   9.893   7.553   9.334
30068SOL     OW95050   9.849   7.512   9.822
30068SOL    HW195051   9.768   7.513   9.880
30068SOL    HW295052   9.852   7.595   9.767
30069SOL     OW95053   9.607   7.483   9.481
30069SOL    HW195054   9.656   7.567   9.460
30069SOL    HW295055   9.669   7.418   9.526
30070SOL     OW95056  10.245   7.684   9.790
30070SOL    HW195057  10.197   7.725   9.712
30070SOL    HW295058  10.344   7.682   9.771
30071SOL     OW95059   9.837   7.704   9.638
30071SOL    HW195060   9.864   7.645   9.563
30071SOL    HW295061   9.837   7.799   9.607
30072SOL     OW95062   9.677   8.548   9.811
30072SOL    HW195063   9.670   8.631   9.755
30072SOL    HW295064   9.681   8.468   9.751
30073SOL     OW95065   9.617   7.511   9.928
30073SOL    HW195066   9.606   7.605   9.961
30073SOL    HW295067   9.612   7.448  10.005
30074SOL     OW95068   9.318   8.774   9.510
30074SOL    HW195069   9.225   8.795   9.479
30074SOL    HW295070   9.328   8.675   9.523
30075SOL     OW95071  10.125   8.020   9.635
30075SOL    HW195072  10.132   7.931   9.589
30075SOL    HW295073  10.031   8.054   9.627
30076SOL     OW95074   9.783   7.948   9.501
30076SOL    HW195075   9.844   8.028   9.505
30076SOL    HW295076   9.688   7.979   9.508
30077SOL     OW95077   9.900   8.935   9.801
30077SOL    HW195078   9.942   8.877   9.731
30077SOL    HW295079   9.856   9.014   9.757
30078SOL     OW95080   9.565   8.796   9.600
30078SOL    HW195081   9.469   8.797   9.573
30078SOL    HW295082   9.577   8.849   9.684
30079SOL     OW95083   9.385   7.793   9.343
30079SOL    HW195084   9.293   7.765   9.314
30079SOL    HW295085   9.416   7.870   9.287
30080SOL     OW95086   9.382   7.614   9.628
30080SOL    HW195087   9.365   7.697   9.574
30080SOL    HW295088   9.472   7.577   9.606
30081SOL     OW95089   9.904   8.193   9.962
30081SOL    HW195090   9.954   8.278   9.943
30081SOL    HW295091   9.816   8.195   9.914
30082SOL     OW95092   9.389   8.688   9.963
30082SOL    HW195093   9.388   8.641  10.051
30082SOL    HW295094   9.471   8.660   9.912
30083SOL     OW95095   9.738   7.872   9.830
30083SOL    HW195096   9.768   7.800   9.768
30083SOL    HW295097   9.699   7.832   9.913
30084SOL     OW95098   9.349   8.525   9.610
30084SOL    HW195099   9.448   8.514   9.601
30084SOL    HW295100   9.309   8.439   9.642
30085SOL     OW95101   9.535   9.585   0.996
30085SOL    HW195102   9.570   9.568   1.088
30085SOL    HW295103   9.447   9.540   0.984
30086SOL     OW95104   9.329   9.678   0.647
30086SOL    HW195105   9.247   9.721   0.686
30086SOL    HW295106   9.301   9.605   0.584
30087SOL     OW95107  10.160  10.108   1.823
30087SOL    HW195108  10.156  10.184   1.888
30087SOL    HW295109  10.182  10.144   1.732
30088SOL     OW95110   9.748   9.702   1.499
30088SOL    HW195111   9.830   9.646   1.508
30088SOL    HW295112   9.667   9.644   1.503
30089SOL     OW95113   9.432   9.953   0.563
30089SOL    HW195114   9.387   9.865   0.580
30089SOL    HW295115   9.431  10.007   0.647
30090SOL     OW95116  10.119   9.314   0.502
30090SOL    HW195117  10.159   9.405   0.493
30090SOL    HW295118  10.019   9.322   0.508
30091SOL     OW95119   9.627   9.561   1.801
30091SOL    HW195120   9.698   9.632   1.807
30091SOL    HW295121   9.539   9.600   1.829
30092SOL     OW95122  10.175   9.658   0.195
30092SOL    HW195123  10.234   9.721   0.146
30092SOL    HW295124  10.194   9.564   0.166
30093SOL     OW95125   9.860   9.506   0.885
30093SOL    HW195126   9.855   9.501   0.985
30093SOL    HW295127   9.862   9.602   0.856
30094SOL     OW95128   9.512   9.595   1.498
30094SOL    HW195129   9.432   9.655   1.485
30094SOL    HW295130   9.502   9.546   1.584
30095SOL     OW95131   9.924   9.432   0.117
30095SOL    HW195132  10.022   9.410   0.124
30095SOL    HW295133   9.893   9.415   0.024
30096SOL     OW95134   9.849   9.374   0.512
30096SOL    HW195135   9.768   9.375   0.570
30096SOL    HW295136   9.852   9.457   0.457
30097SOL     OW95137  10.245   9.546   0.480
30097SOL    HW195138  10.197   9.587   0.402
30097SOL    HW295139  10.344   9.544   0.461
30098SOL     OW95140   9.388   9.866   1.386
30098SOL    HW195141   9.480   9.865   1.345
30098SOL    HW295142   9.382   9.940   1.453
30099SOL     OW95143   9.871   9.532   1.147
30099SOL    HW195144   9.909   9.448   1.184
30099SOL    HW295145   9.783   9.551   1.191
30100SOL     OW95146   9.837   9.566   0.328
30100SOL    HW195147   9.864   9.507   0.253
30100SOL    HW295148   9.837   9.661   0.297
30101SOL     OW95149   9.876   9.847   0.865
30101SOL    HW195150   9.888   9.913   0.791
30101SOL    HW295151   9.922   9.881   0.948
30102SOL     OW95152   9.814   9.360   1.740
30102SOL    HW195153   9.772   9.303   1.670
30102SOL    HW295154   9.748   9.429   1.772
30103SOL     OW95155   9.617   9.523   1.231
30103SOL    HW195156   9.594   9.560   1.321
30103SOL    HW295157   9.587   9.428   1.225
30104SOL     OW95158   9.617   9.373   0.618
30104SOL    HW195159   9.606   9.467   0.651
30104SOL    HW295160   9.612   9.310   0.695
30105SOL     OW95161   9.629  10.120   0.949
30105SOL    HW195162   9.722  10.156   0.954
30105SOL    HW295163   9.623  10.035   1.001
30106SOL     OW95164   9.649   9.819   1.006
30106SOL    HW195165   9.597   9.736   0.989
30106SOL    HW295166   9.726   9.824   0.942
30107SOL     OW95167   9.350   9.854   1.114
30107SOL    HW195168   9.435   9.821   1.073
30107SOL    HW295169   9.363   9.869   1.212
30108SOL     OW95170   9.499   9.830   1.722
30108SOL    HW195171   9.558   9.790   1.652
30108SOL    HW295172   9.441   9.901   1.681
30109SOL     OW95173  10.125   9.882   0.325
30109SOL    HW195174  10.132   9.793   0.279
30109SOL    HW295175  10.031   9.916   0.317
30110SOL     OW95176   9.573   9.636   0.720
30110SOL    HW195177   9.494   9.687   0.686
30110SOL    HW295178   9.564   9.621   0.818
30111SOL     OW95179   9.982   9.513   1.489
30111SOL    HW195180  10.072   9.497   1.449
30111SOL    HW295181   9.990   9.518   1.588
30112SOL     OW95182   9.385   9.655   0.033
30112SOL    HW195183   9.293   9.627   0.004
30112SOL    HW295184   9.416   9.732  -0.023
30113SOL     OW95185   9.382   9.476   0.318
30113SOL    HW195186   9.365   9.559   0.264
30113SOL    HW295187   9.472   9.439   0.296
30114SOL     OW95188   9.738   9.734   0.520
30114SOL    HW195189   9.768   9.662   0.458
30114SOL    HW295190   9.699   9.694   0.603
30115SOL     OW95191   9.627   9.857   1.280
30115SOL    HW195192   9.665   9.798   1.352
30115SOL    HW295193   9.667   9.831   1.192
30116SOL     OW95194   9.535   9.585   2.858
30116SOL    HW195195   9.570   9.568   2.950
30116SOL    HW295196   9.447   9.540   2.846
30117SOL     OW95197   9.329   9.678   2.509
30117SOL    HW195198   9.247   9.721   2.548
30117SOL    HW295199   9.301   9.605   2.446
30118SOL     OW95200   9.748   9.702   3.361
30118SOL    HW195201   9.830   9.646   3.370
30118SOL    HW295202   9.667   9.644   3.365
30119SOL     OW95203   9.432   9.953   2.425
30119SOL    HW195204   9.387   9.865   2.442
30119SOL    HW295205   9.431  10.007   2.509
30120SOL     OW95206  10.119   9.314   2.364
30120SOL    HW195207  10.159   9.405   2.355
30120SOL    HW295208  10.019   9.322   2.370
30121SOL     OW95209  10.175   9.658   2.057
30121SOL    HW195210  10.234   9.721   2.008
30121SOL    HW295211  10.194   9.564   2.028
30122SOL     OW95212   9.512   9.595   3.360
30122SOL    HW195213   9.432   9.655   3.347
30122SOL    HW295214   9.502   9.546   3.446
30123SOL     OW95215   9.924   9.432   1.979
30123SOL    HW195216  10.022   9.410   1.986
30123SOL    HW295217   9.893   9.415   1.886
30124SOL     OW95218   9.849   9.374   2.374
30124SOL    HW195219   9.768   9.375   2.432
30124SOL    HW295220   9.852   9.457   2.319
30125SOL     OW95221   9.607   9.345   2.033
30125SOL    HW195222   9.656   9.429   2.012
30125SOL    HW295223   9.669   9.280   2.078
30126SOL     OW95224  10.245   9.546   2.342
30126SOL    HW195225  10.197   9.587   2.264
30126SOL    HW295226  10.344   9.544   2.323
30127SOL     OW95227   9.388   9.866   3.248
30127SOL    HW195228   9.480   9.865   3.207
30127SOL    HW295229   9.382   9.940   3.315
30128SOL     OW95230   9.837   9.566   2.190
30128SOL    HW195231   9.864   9.507   2.115
30128SOL    HW295232   9.837   9.661   2.159
30129SOL     OW95233   9.617   9.523   3.093
30129SOL    HW195234   9.594   9.560   3.183
30129SOL    HW295235   9.587   9.428   3.087
30130SOL     OW95236   9.617   9.373   2.480
30130SOL    HW195237   9.606   9.467   2.513
30130SOL    HW295238   9.612   9.310   2.557
30131SOL     OW95239   9.629  10.120   2.811
30131SOL    HW195240   9.722  10.156   2.816
30131SOL    HW295241   9.623  10.035   2.863
30132SOL     OW95242   9.649   9.819   2.868
30132SOL    HW195243   9.597   9.736   2.851
30132SOL    HW295244   9.726   9.824   2.804
30133SOL     OW95245   9.350   9.854   2.976
30133SOL    HW195246   9.435   9.821   2.935
30133SOL    HW295247   9.363   9.869   3.074
30134SOL     OW95248   9.499   9.830   3.584
30134SOL    HW195249   9.558   9.790   3.514
30134SOL    HW295250   9.441   9.901   3.543
30135SOL     OW95251  10.125   9.882   2.187
30135SOL    HW195252  10.132   9.793   2.141
30135SOL    HW295253  10.031   9.916   2.179
30136SOL     OW95254   9.573   9.636   2.582
30136SOL    HW195255   9.494   9.687   2.548
30136SOL    HW295256   9.564   9.621   2.680
30137SOL     OW95257   9.385   9.655   1.895
30137SOL    HW195258   9.293   9.627   1.866
30137SOL    HW295259   9.416   9.732   1.839
30138SOL     OW95260   9.382   9.476   2.180
30138SOL    HW195261   9.365   9.559   2.126
30138SOL    HW295262   9.472   9.439   2.158
30139SOL     OW95263   9.738   9.734   2.382
30139SOL    HW195264   9.768   9.662   2.320
30139SOL    HW295265   9.699   9.694   2.465
30140SOL     OW95266   9.627   9.857   3.142
30140SOL    HW195267   9.665   9.798   3.214
30140SOL    HW295268   9.667   9.831   3.054
30141SOL     OW95269   9.535   9.585   4.720
30141SOL    HW195270   9.570   9.568   4.812
30141SOL    HW295271   9.447   9.540   4.708
30142SOL     OW95272   9.329   9.678   4.371
30142SOL    HW195273   9.247   9.721   4.410
30142SOL    HW295274   9.301   9.605   4.308
30143SOL     OW95275   9.748   9.702   5.223
30143SOL    HW195276   9.830   9.646   5.232
30143SOL    HW295277   9.667   9.644   5.227
30144SOL     OW95278   9.432   9.953   4.287
30144SOL    HW195279   9.387   9.865   4.304
30144SOL    HW295280   9.431  10.007   4.371
30145SOL     OW95281  10.119   9.314   4.226
30145SOL    HW195282  10.159   9.405   4.217
30145SOL    HW295283  10.019   9.322   4.232
30146SOL     OW95284   9.627   9.561   5.525
30146SOL    HW195285   9.698   9.632   5.531
30146SOL    HW295286   9.539   9.600   5.553
30147SOL     OW95287  10.175   9.658   3.919
30147SOL    HW195288  10.234   9.721   3.870
30147SOL    HW295289  10.194   9.564   3.890
30148SOL     OW95290   9.512   9.595   5.222
30148SOL    HW195291   9.432   9.655   5.209
30148SOL    HW295292   9.502   9.546   5.308
30149SOL     OW95293   9.849   9.374   4.236
30149SOL    HW195294   9.768   9.375   4.294
30149SOL    HW295295   9.852   9.457   4.181
30150SOL     OW95296   9.607   9.345   3.895
30150SOL    HW195297   9.656   9.429   3.874
30150SOL    HW295298   9.669   9.280   3.940
30151SOL     OW95299  10.245   9.546   4.204
30151SOL    HW195300  10.197   9.587   4.126
30151SOL    HW295301  10.344   9.544   4.185
30152SOL     OW95302   9.388   9.866   5.110
30152SOL    HW195303   9.480   9.865   5.069
30152SOL    HW295304   9.382   9.940   5.177
30153SOL     OW95305   9.871   9.532   4.871
30153SOL    HW195306   9.909   9.448   4.908
30153SOL    HW295307   9.783   9.551   4.915
30154SOL     OW95308   9.837   9.566   4.052
30154SOL    HW195309   9.864   9.507   3.977
30154SOL    HW295310   9.837   9.661   4.021
30155SOL     OW95311   9.876   9.847   4.589
30155SOL    HW195312   9.888   9.913   4.515
30155SOL    HW295313   9.922   9.881   4.672
30156SOL     OW95314   9.814   9.360   5.464
30156SOL    HW195315   9.772   9.303   5.394
30156SOL    HW295316   9.748   9.429   5.496
30157SOL     OW95317   9.617   9.523   4.955
30157SOL    HW195318   9.594   9.560   5.045
30157SOL    HW295319   9.587   9.428   4.949
30158SOL     OW95320   9.629  10.120   4.673
30158SOL    HW195321   9.722  10.156   4.678
30158SOL    HW295322   9.623  10.035   4.725
30159SOL     OW95323   9.649   9.819   4.730
30159SOL    HW195324   9.597   9.736   4.713
30159SOL    HW295325   9.726   9.824   4.666
30160SOL     OW95326   9.350   9.854   4.838
30160SOL    HW195327   9.435   9.821   4.797
30160SOL    HW295328   9.363   9.869   4.936
30161SOL     OW95329   9.499   9.830   5.446
30161SOL    HW195330   9.558   9.790   5.376
30161SOL    HW295331   9.441   9.901   5.405
30162SOL     OW95332  10.125   9.882   4.049
30162SOL    HW195333  10.132   9.793   4.003
30162SOL    HW295334  10.031   9.916   4.041
30163SOL     OW95335   9.573   9.636   4.444
30163SOL    HW195336   9.494   9.687   4.410
30163SOL    HW295337   9.564   9.621   4.542
30164SOL     OW95338   9.982   9.513   5.213
30164SOL    HW195339  10.072   9.497   5.173
30164SOL    HW295340   9.990   9.518   5.312
30165SOL     OW95341   9.382   9.476   4.042
30165SOL    HW195342   9.365   9.559   3.988
30165SOL    HW295343   9.472   9.439   4.020
30166SOL     OW95344   9.738   9.734   4.244
30166SOL    HW195345   9.768   9.662   4.182
30166SOL    HW295346   9.699   9.694   4.327
30167SOL     OW95347   9.627   9.857   5.004
30167SOL    HW195348   9.665   9.798   5.076
30167SOL    HW295349   9.667   9.831   4.916
30168SOL     OW95350   9.535   9.585   6.582
30168SOL    HW195351   9.570   9.568   6.674
30168SOL    HW295352   9.447   9.540   6.570
30169SOL     OW95353   9.329   9.678   6.233
30169SOL    HW195354   9.247   9.721   6.272
30169SOL    HW295355   9.301   9.605   6.170
30170SOL     OW95356  10.160  10.108   7.409
30170SOL    HW195357  10.156  10.184   7.474
30170SOL    HW295358  10.182  10.144   7.318
30171SOL     OW95359   9.748   9.702   7.085
30171SOL    HW195360   9.830   9.646   7.094
30171SOL    HW295361   9.667   9.644   7.089
30172SOL     OW95362   9.432   9.953   6.149
30172SOL    HW195363   9.387   9.865   6.166
30172SOL    HW295364   9.431  10.007   6.233
30173SOL     OW95365  10.119   9.314   6.088
30173SOL    HW195366  10.159   9.405   6.079
30173SOL    HW295367  10.019   9.322   6.094
30174SOL     OW95368   9.627   9.561   7.387
30174SOL    HW195369   9.698   9.632   7.393
30174SOL    HW295370   9.539   9.600   7.415
30175SOL     OW95371  10.175   9.658   5.781
30175SOL    HW195372  10.234   9.721   5.732
30175SOL    HW295373  10.194   9.564   5.752
30176SOL     OW95374   9.860   9.506   6.471
30176SOL    HW195375   9.855   9.501   6.571
30176SOL    HW295376   9.862   9.602   6.442
30177SOL     OW95377   9.512   9.595   7.084
30177SOL    HW195378   9.432   9.655   7.071
30177SOL    HW295379   9.502   9.546   7.170
30178SOL     OW95380   9.924   9.432   5.703
30178SOL    HW195381  10.022   9.410   5.710
30178SOL    HW295382   9.893   9.415   5.610
30179SOL     OW95383  10.245   9.546   6.066
30179SOL    HW195384  10.197   9.587   5.988
30179SOL    HW295385  10.344   9.544   6.047
30180SOL     OW95386   9.388   9.866   6.972
30180SOL    HW195387   9.480   9.865   6.931
30180SOL    HW295388   9.382   9.940   7.039
30181SOL     OW95389   9.871   9.532   6.733
30181SOL    HW195390   9.909   9.448   6.770
30181SOL    HW295391   9.783   9.551   6.777
30182SOL     OW95392   9.876   9.847   6.451
30182SOL    HW195393   9.888   9.913   6.377
30182SOL    HW295394   9.922   9.881   6.534
30183SOL     OW95395   9.814   9.360   7.326
30183SOL    HW195396   9.772   9.303   7.256
30183SOL    HW295397   9.748   9.429   7.358
30184SOL     OW95398   9.617   9.523   6.817
30184SOL    HW195399   9.594   9.560   6.907
30184SOL    HW295400   9.587   9.428   6.811
30185SOL     OW95401   9.629  10.120   6.535
30185SOL    HW195402   9.722  10.156   6.540
30185SOL    HW295403   9.623  10.035   6.587
30186SOL     OW95404   9.649   9.819   6.592
30186SOL    HW195405   9.597   9.736   6.575
30186SOL    HW295406   9.726   9.824   6.528
30187SOL     OW95407   9.350   9.854   6.700
30187SOL    HW195408   9.435   9.821   6.659
30187SOL    HW295409   9.363   9.869   6.798
30188SOL     OW95410   9.499   9.830   7.308
30188SOL    HW195411   9.558   9.790   7.238
30188SOL    HW295412   9.441   9.901   7.267
30189SOL     OW95413  10.125   9.882   5.911
30189SOL    HW195414  10.132   9.793   5.865
30189SOL    HW295415  10.031   9.916   5.903
30190SOL     OW95416   9.573   9.636   6.306
30190SOL    HW195417   9.494   9.687   6.272
30190SOL    HW295418   9.564   9.621   6.404
30191SOL     OW95419   9.982   9.513   7.075
30191SOL    HW195420  10.072   9.497   7.035
30191SOL    HW295421   9.990   9.518   7.174
30192SOL     OW95422   9.385   9.655   5.619
30192SOL    HW195423   9.293   9.627   5.590
30192SOL    HW295424   9.416   9.732   5.563
30193SOL     OW95425   9.382   9.476   5.904
30193SOL    HW195426   9.365   9.559   5.850
30193SOL    HW295427   9.472   9.439   5.882
30194SOL     OW95428   9.738   9.734   6.106
30194SOL    HW195429   9.768   9.662   6.044
30194SOL    HW295430   9.699   9.694   6.189
30195SOL     OW95431   9.627   9.857   6.866
30195SOL    HW195432   9.665   9.798   6.938
30195SOL    HW295433   9.667   9.831   6.778
30196SOL     OW95434   9.535   9.585   8.444
30196SOL    HW195435   9.570   9.568   8.536
30196SOL    HW295436   9.447   9.540   8.432
30197SOL     OW95437   9.329   9.678   8.095
30197SOL    HW195438   9.247   9.721   8.134
30197SOL    HW295439   9.301   9.605   8.032
30198SOL     OW95440  10.160  10.108   9.271
30198SOL    HW195441  10.156  10.184   9.336
30198SOL    HW295442  10.182  10.144   9.180
30199SOL     OW95443   9.748   9.702   8.947
30199SOL    HW195444   9.830   9.646   8.956
30199SOL    HW295445   9.667   9.644   8.951
30200SOL     OW95446   9.432   9.953   8.011
30200SOL    HW195447   9.387   9.865   8.028
30200SOL    HW295448   9.431  10.007   8.095
30201SOL     OW95449  10.119   9.314   7.950
30201SOL    HW195450  10.159   9.405   7.941
30201SOL    HW295451  10.019   9.322   7.956
30202SOL     OW95452   9.627   9.561   9.249
30202SOL    HW195453   9.698   9.632   9.255
30202SOL    HW295454   9.539   9.600   9.277
30203SOL     OW95455   9.512   9.595   8.946
30203SOL    HW195456   9.432   9.655   8.933
30203SOL    HW295457   9.502   9.546   9.032
30204SOL     OW95458   9.924   9.432   7.565
30204SOL    HW195459  10.022   9.410   7.572
30204SOL    HW295460   9.893   9.415   7.472
30205SOL     OW95461   9.849   9.374   7.960
30205SOL    HW195462   9.768   9.375   8.018
30205SOL    HW295463   9.852   9.457   7.905
30206SOL     OW95464   9.607   9.345   7.619
30206SOL    HW195465   9.656   9.429   7.598
30206SOL    HW295466   9.669   9.280   7.664
30207SOL     OW95467  10.245   9.546   7.928
30207SOL    HW195468  10.197   9.587   7.850
30207SOL    HW295469  10.344   9.544   7.909
30208SOL     OW95470   9.388   9.866   8.834
30208SOL    HW195471   9.480   9.865   8.793
30208SOL    HW295472   9.382   9.940   8.901
30209SOL     OW95473   9.871   9.532   8.595
30209SOL    HW195474   9.909   9.448   8.632
30209SOL    HW295475   9.783   9.551   8.639
30210SOL     OW95476   9.837   9.566   7.776
30210SOL    HW195477   9.864   9.507   7.701
30210SOL    HW295478   9.837   9.661   7.745
30211SOL     OW95479   9.876   9.847   8.313
30211SOL    HW195480   9.888   9.913   8.239
30211SOL    HW295481   9.922   9.881   8.396
30212SOL     OW95482   9.814   9.360   9.188
30212SOL    HW195483   9.772   9.303   9.118
30212SOL    HW295484   9.748   9.429   9.220
30213SOL     OW95485   9.617   9.523   8.679
30213SOL    HW195486   9.594   9.560   8.769
30213SOL    HW295487   9.587   9.428   8.673
30214SOL     OW95488   9.617   9.373   8.066
30214SOL    HW195489   9.606   9.467   8.099
30214SOL    HW295490   9.612   9.310   8.143
30215SOL     OW95491   9.629  10.120   8.397
30215SOL    HW195492   9.722  10.156   8.402
30215SOL    HW295493   9.623  10.035   8.449
30216SOL     OW95494   9.649   9.819   8.454
30216SOL    HW195495   9.597   9.736   8.437
30216SOL    HW295496   9.726   9.824   8.390
30217SOL     OW95497   9.350   9.854   8.562
30217SOL    HW195498   9.435   9.821   8.521
30217SOL    HW295499   9.363   9.869   8.660
30218SOL     OW95500   9.499   9.830   9.170
30218SOL    HW195501   9.558   9.790   9.100
30218SOL    HW295502   9.441   9.901   9.129
30219SOL     OW95503  10.125   9.882   7.773
30219SOL    HW195504  10.132   9.793   7.727
30219SOL    HW295505  10.031   9.916   7.765
30220SOL     OW95506   9.573   9.636   8.168
30220SOL    HW195507   9.494   9.687   8.134
30220SOL    HW295508   9.564   9.621   8.266
30221SOL     OW95509   9.982   9.513   8.937
30221SOL    HW195510  10.072   9.497   8.897
30221SOL    HW295511   9.990   9.518   9.036
30222SOL     OW95512   9.385   9.655   7.481
30222SOL    HW195513   9.293   9.627   7.452
30222SOL    HW295514   9.416   9.732   7.425
30223SOL     OW95515   9.382   9.476   7.766
30223SOL    HW195516   9.365   9.559   7.712
30223SOL    HW295517   9.472   9.439   7.744
30224SOL     OW95518   9.738   9.734   7.968
30224SOL    HW195519   9.768   9.662   7.906
30224SOL    HW295520   9.699   9.694   8.051
30225SOL     OW95521   9.627   9.857   8.728
30225SOL    HW195522   9.665   9.798   8.800
30225SOL    HW295523   9.667   9.831   8.640
30226SOL     OW95524   9.432   9.953   9.873
30226SOL    HW195525   9.387   9.865   9.890
30226SOL    HW295526   9.431  10.007   9.957
30227SOL     OW95527  10.119   9.314   9.812
30227SOL    HW195528  10.159   9.405   9.803
30227SOL    HW295529  10.019   9.322   9.818
30228SOL     OW95530  10.175   9.658   9.505
30228SOL    HW195531  10.234   9.721   9.456
30228SOL    HW295532  10.194   9.564   9.476
30229SOL     OW95533   9.924   9.432   9.427
30229SOL    HW195534  10.022   9.410   9.434
30229SOL    HW295535   9.893   9.415   9.334
30230SOL     OW95536   9.849   9.374   9.822
30230SOL    HW195537   9.768   9.375   9.880
30230SOL    HW295538   9.852   9.457   9.767
30231SOL     OW95539   9.607   9.345   9.481
30231SOL    HW195540   9.656   9.429   9.460
30231SOL    HW295541   9.669   9.280   9.526
30232SOL     OW95542  10.245   9.546   9.790
30232SOL    HW195543  10.197   9.587   9.712
30232SOL    HW295544  10.344   9.544   9.771
30233SOL     OW95545   9.837   9.566   9.638
30233SOL    HW195546   9.864   9.507   9.563
30233SOL    HW295547   9.837   9.661   9.607
30234SOL     OW95548   9.617   9.373   9.928
30234SOL    HW195549   9.606   9.467   9.961
30234SOL    HW295550   9.612   9.310  10.005
30235SOL     OW95551   9.649   9.819  10.316
30235SOL    HW195552   9.597   9.736  10.299
30235SOL    HW295553   9.726   9.824  10.252
30236SOL     OW95554  10.125   9.882   9.635
30236SOL    HW195555  10.132   9.793   9.589
30236SOL    HW295556  10.031   9.916   9.627
30237SOL     OW95557   9.385   9.655   9.343
30237SOL    HW195558   9.293   9.627   9.314
30237SOL    HW295559   9.416   9.732   9.287
30238SOL     OW95560   9.382   9.476   9.628
30238SOL    HW195561   9.365   9.559   9.574
30238SOL    HW295562   9.472   9.439   9.606
30239SOL     OW95563   9.738   9.734   9.830
30239SOL    HW195564   9.768   9.662   9.768
30239SOL    HW295565   9.699   9.694   9.913
30240SOD    SOD95566   0.569   1.275   1.165
30241SOD    SOD95567   0.916   0.910   4.015
30242SOD    SOD95568   0.850   0.798   7.409
30243SOD    SOD95569   0.037   1.310   8.730
30244SOD    SOD95570   0.822   1.002   8.820
30245SOD    SOD95571   1.434   1.188   9.351
30246SOD    SOD95572   1.641   2.970   7.880
30247SOD    SOD95573   0.566   2.399   8.313
30248SOD    SOD95574   0.008   3.188   9.510
30249SOD    SOD95575   1.352   1.914   9.478
30250SOD    SOD95576   1.272   5.169   1.142
30251SOD    SOD95577   0.504   5.292   0.910
30252SOD    SOD95578   1.504   5.331   0.044
30253SOD    SOD95579   0.105   4.737   1.726
30254SOD    SOD95580   0.410   4.537   8.699
30255SOD    SOD95581   1.504   7.193   0.044
30256SOD    SOD95582   1.002   6.382   3.100
30257SOD    SOD95583   0.252   7.150   3.606
30258SOD    SOD95584   1.450   6.806   3.495
30259SOD    SOD95585   0.113   6.323   5.321
30260SOD    SOD95586   0.351   7.387   4.577
30261SOD    SOD95587   0.461   6.852   7.313
30262SOD    SOD95588   0.539   5.650   6.098
30263SOD    SOD95589   0.732   6.220   6.650
30264SOD    SOD95590   1.614   6.878   6.875
30265SOD    SOD95591   1.008   7.042   7.925
30266SOD    SOD95592   1.504   7.193   7.492
30267SOD    SOD95593   1.525   8.447   2.052
30268SOD    SOD95594   1.450   8.668   3.495
30269SOD    SOD95595   1.603   7.895   4.461
30270SOD    SOD95596   1.017   7.487   4.477
30271SOD    SOD95597   1.709   7.833   6.967
30272SOD    SOD95598   0.428   7.872   6.106
30273SOD    SOD95599   1.271   9.245   9.901
30274SOD    SOD95600   1.394   9.779   9.122
30275SOD    SOD95601   2.835   0.890   3.434
30276SOD    SOD95602   2.721   0.956   2.723
30277SOD    SOD95603   3.049   1.792   5.340
30278SOD    SOD95604   2.835   0.890   5.296
30279SOD    SOD95605   3.657   1.066   4.597
30280SOD    SOD95606   2.117   1.348   4.014
30281SOD    SOD95607   1.967   1.013   5.450
30282SOD    SOD95608   3.355   1.767   4.683
30283SOD    SOD95609   2.523   1.790   4.677
30284SOD    SOD95610   3.686   0.192   6.813
30285SOD    SOD95611   3.164   0.855   7.757
30286SOD    SOD95612   3.250   1.573   9.787
30287SOD    SOD95613   3.519   2.466   1.206
30288SOD    SOD95614   2.792   3.540   1.465
30289SOD    SOD95615   2.326   3.605   2.185
30290SOD    SOD95616   2.169   1.925   2.480
30291SOD    SOD95617   2.179   2.113   5.525
30292SOD    SOD95618   3.581   2.447   5.555
30293SOD    SOD95619   2.797   2.098   4.204
30294SOD    SOD95620   3.526   3.142   4.381
30295SOD    SOD95621   3.056   3.474   3.755
30296SOD    SOD95622   3.224   3.006   6.131
30297SOD    SOD95623   2.938   2.545   7.050
30298SOD    SOD95624   3.512   3.582   6.980
30299SOD    SOD95625   2.252   3.603   7.146
30300SOD    SOD95626   3.291   3.035   8.315
30301SOD    SOD95627   3.056   3.474   7.479
30302SOD    SOD95628   2.778   2.772   7.739
30303SOD    SOD95629   2.452   3.349   7.939
30304SOD    SOD95630   2.797   2.098   9.790
30305SOD    SOD95631   2.213   5.525   0.853
30306SOD    SOD95632   3.409   3.946   1.729
30307SOD    SOD95633   2.476   3.846   0.117
30308SOD    SOD95634   2.784   4.227   0.899
30309SOD    SOD95635   3.231   4.674   1.660
30310SOD    SOD95636   2.234   5.012   1.490
30311SOD    SOD95637   3.049   5.516   3.478
30312SOD    SOD95638   2.412   3.920   2.747
30313SOD    SOD95639   2.677   4.296   2.187
30314SOD    SOD95640   3.209   4.783   3.096
30315SOD    SOD95641   2.087   3.999   4.720
30316SOD    SOD95642   3.417   5.235   4.427
30317SOD    SOD95643   2.643   3.988   5.473
30318SOD    SOD95644   1.934   3.890   4.042
30319SOD    SOD95645   2.480   5.291   5.008
30320SOD    SOD95646   3.455   3.945   4.606
30321SOD    SOD95647   2.750   5.238   6.781
30322SOD    SOD95648   3.213   4.314   7.019
30323SOD    SOD95649   2.842   4.840   7.305
30324SOD    SOD95650   2.778   4.634   5.877
30325SOD    SOD95651   2.460   4.453   7.718
30326SOD    SOD95652   3.409   3.946   9.177
30327SOD    SOD95653   2.594   4.358   8.512
30328SOD    SOD95654   2.051   4.244   9.170
30329SOD    SOD95655   3.455   3.945   8.330
30330SOD    SOD95656   2.326   7.329   0.323
30331SOD    SOD95657   1.899   6.896   1.282
30332SOD    SOD95658   2.864   6.382   1.238
30333SOD    SOD95659   2.534   6.977   1.624
30334SOD    SOD95660   3.286   5.800   1.112
30335SOD    SOD95661   3.328   7.003   2.815
30336SOD    SOD95662   2.201   6.095   2.868
30337SOD    SOD95663   2.692   6.859   3.284
30338SOD    SOD95664   2.737   7.232   2.199
30339SOD    SOD95665   2.853   5.996   4.966
30340SOD    SOD95666   3.703   5.761   4.687
30341SOD    SOD95667   3.302   6.442   5.122
30342SOD    SOD95668   3.155   6.814   7.009
30343SOD    SOD95669   2.973   7.362   5.823
30344SOD    SOD95670   3.721   7.104   7.191
30345SOD    SOD95671   1.870   6.912   5.786
30346SOD    SOD95672   2.534   5.789   7.075
30347SOD    SOD95673   3.252   6.161   7.526
30348SOD    SOD95674   2.229   6.686   7.949
30349SOD    SOD95675   3.449   6.365   9.118
30350SOD    SOD95676   3.142   6.513   8.120
30351SOD    SOD95677   3.512   7.306   8.842
30352SOD    SOD95678   3.286   5.800   8.560
30353SOD    SOD95679   2.229   6.686   9.811
30354SOD    SOD95680   3.494   8.825   0.081
30355SOD    SOD95681   3.581   8.033   3.693
30356SOD    SOD95682   2.412   7.644   2.747
30357SOD    SOD95683   3.133   9.245   2.453
30358SOD    SOD95684   2.671   7.452   4.226
30359SOD    SOD95685   3.136   7.834   4.986
30360SOD    SOD95686   3.588   7.583   4.247
30361SOD    SOD95687   3.657   8.514   6.459
30362SOD    SOD95688   3.114   9.179   6.714
30363SOD    SOD95689   3.703   7.623   6.549
30364SOD    SOD95690   2.863   7.482   6.740
30365SOD    SOD95691   2.853   7.858   8.690
30366SOD    SOD95692   2.894   7.997   9.326
30367SOD    SOD95693   2.632   8.778   9.611
30368SOD    SOD95694   5.501   0.342   3.504
30369SOD    SOD95695   5.388   1.280   4.381
30370SOD    SOD95696   3.976   1.564   7.330
30371SOD    SOD95697   5.190   3.279   0.953
30372SOD    SOD95698   4.297   2.732   1.029
30373SOD    SOD95699   5.433   2.247   1.381
30374SOD    SOD95700   5.249   2.861   2.052
30375SOD    SOD95701   5.548   2.054   3.089
30376SOD    SOD95702   4.536   3.448   2.549
30377SOD    SOD95703   5.158   3.050   3.765
30378SOD    SOD95704   4.590   2.316   4.366
30379SOD    SOD95705   4.998   2.248   4.986
30380SOD    SOD95706   5.311   2.641   5.394
30381SOD    SOD95707   3.764   2.406   4.838
30382SOD    SOD95708   4.126   2.613   7.184
30383SOD    SOD95709   4.412   3.524   7.302
30384SOD    SOD95710   5.174   3.082   7.219
30385SOD    SOD95711   4.583   3.236   5.602
30386SOD    SOD95712   4.293   3.137   8.613
30387SOD    SOD95713   3.955   3.575   7.931
30388SOD    SOD95714   5.413   2.784   8.060
30389SOD    SOD95715   5.017   3.090   8.871
30390SOD    SOD95716   4.589   2.210   7.643
30391SOD    SOD95717   4.951   3.432   8.241
30392SOD    SOD95718   3.987   2.188   8.168
30393SOD    SOD95719   4.212   3.247   9.484
30394SOD    SOD95720   4.765   4.425   0.429
30395SOD    SOD95721   5.075   4.314   1.433
30396SOD    SOD95722   3.764   4.268   1.114
30397SOD    SOD95723   4.152   4.148   0.520
30398SOD    SOD95724   3.964   4.815   2.748
30399SOD    SOD95725   4.765   4.425   2.291
30400SOD    SOD95726   5.124   3.831   2.288
30401SOD    SOD95727   5.153   4.897   2.729
30402SOD    SOD95728   4.096   5.012   3.352
30403SOD    SOD95729   3.763   4.801   2.162
30404SOD    SOD95730   4.162   4.116   5.223
30405SOD    SOD95731   4.533   3.728   4.226
30406SOD    SOD95732   4.933   4.249   3.999
30407SOD    SOD95733   4.654   5.402   5.189
30408SOD    SOD95734   4.410   4.885   7.389
30409SOD    SOD95735   4.075   5.525   6.439
30410SOD    SOD95736   5.271   3.946   7.315
30411SOD    SOD95737   5.071   4.783   6.820
30412SOD    SOD95738   3.987   4.050   6.306
30413SOD    SOD95739   3.763   4.801   5.886
30414SOD    SOD95740   3.732   5.050   7.648
30415SOD    SOD95741   5.071   4.783   8.682
30416SOD    SOD95742   3.799   4.069   7.481
30417SOD    SOD95743   4.318   4.469   8.100
30418SOD    SOD95744   4.337   5.089  10.036
30419SOD    SOD95745   4.045   4.667   9.552
30420SOD    SOD95746   3.921   6.562   1.264
30421SOD    SOD95747   3.987   5.912   0.720
30422SOD    SOD95748   3.964   6.677   2.748
30423SOD    SOD95749   4.330   6.550   1.985
30424SOD    SOD95750   4.732   7.042   2.339
30425SOD    SOD95751   5.271   5.808   3.591
30426SOD    SOD95752   4.021   5.621   2.033
30427SOD    SOD95753   4.659   5.822   2.342
30428SOD    SOD95754   4.704   7.159   3.562
30429SOD    SOD95755   4.096   6.874   3.352
30430SOD    SOD95756   5.454   6.520   3.379
30431SOD    SOD95757   4.851   6.927   5.414
30432SOD    SOD95758   5.318   5.700   5.204
30433SOD    SOD95759   3.800   6.397   4.513
30434SOD    SOD95760   4.747   6.352   4.690
30435SOD    SOD95761   4.949   5.911   4.173
30436SOD    SOD95762   3.964   6.677   6.472
30437SOD    SOD95763   3.837   6.323   7.183
30438SOD    SOD95764   4.531   6.191   7.051
30439SOD    SOD95765   4.732   7.042   6.063
30440SOD    SOD95766   5.581   6.419   5.963
30441SOD    SOD95767   5.174   6.806   7.219
30442SOD    SOD95768   3.846   6.229   8.011
30443SOD    SOD95769   5.005   5.931   8.392
30444SOD    SOD95770   4.297   6.456   8.477
30445SOD    SOD95771   4.792   6.919   8.297
30446SOD    SOD95772   5.338   6.878   8.737
30447SOD    SOD95773   4.583   6.960   7.464
30448SOD    SOD95774   4.539   6.158   9.635
30449SOD    SOD95775   5.391   9.162   0.572
30450SOD    SOD95776   4.792   8.781   0.849
30451SOD    SOD95777   3.854   9.269   3.433
30452SOD    SOD95778   4.274   7.644   2.747
30453SOD    SOD95779   5.583   8.966   3.467
30454SOD    SOD95780   4.792   8.781   2.711
30455SOD    SOD95781   4.106   8.148   4.204
30456SOD    SOD95782   4.228   7.498   5.464
30457SOD    SOD95783   3.764   7.992   4.838
30458SOD    SOD95784   4.395   7.912   4.993
30459SOD    SOD95785   3.954   8.076   5.699
30460SOD    SOD95786   5.365   8.556   6.018
30461SOD    SOD95787   4.075   9.249   6.439
30462SOD    SOD95788   3.854   9.242   7.437
30463SOD    SOD95789   5.005   7.793   8.392
30464SOD    SOD95790   4.045   8.391   7.690
30465SOD    SOD95791   4.995   9.245   8.039
30466SOD    SOD95792   4.907   8.783   7.567
30467SOD    SOD95793   4.933   9.835   9.585
30468SOD    SOD95794   6.125   0.064   0.512
30469SOD    SOD95795   6.976   0.575   0.078
30470SOD    SOD95796   6.866   0.927   0.672
30471SOD    SOD95797   6.050   1.743   2.185
30472SOD    SOD95798   5.940   1.510   5.053
30473SOD    SOD95799   7.312   0.135   4.247
30474SOD    SOD95800   6.662   0.683   7.050
30475SOD    SOD95801   6.401   0.572   7.773
30476SOD    SOD95802   5.976   1.741   9.008
30477SOD    SOD95803   6.976   0.575   9.388
30478SOD    SOD95804   6.047   3.128   1.727
30479SOD    SOD95805   7.341   2.469   2.093
30480SOD    SOD95806   6.867   2.207   2.806
30481SOD    SOD95807   6.050   3.605   2.185
30482SOD    SOD95808   6.857   3.659   2.453
30483SOD    SOD95809   7.015   3.035   2.729
30484SOD    SOD95810   6.588   2.658   3.100
30485SOD    SOD95811   5.937   3.663   4.577
30486SOD    SOD95812   6.566   2.978   5.443
30487SOD    SOD95813   6.609   2.628   4.690
30488SOD    SOD95814   6.502   2.772   4.015
30489SOD    SOD95815   5.788   2.147   7.084
30490SOD    SOD95816   6.857   3.659   6.177
30491SOD    SOD95817   6.795   2.387   5.861
30492SOD    SOD95818   6.059   2.362   5.777
30493SOD    SOD95819   5.669   3.120   6.608
30494SOD    SOD95820   7.260   2.745   6.840
30495SOD    SOD95821   6.204   3.429   6.870
30496SOD    SOD95822   7.275   2.784   8.060
30497SOD    SOD95823   7.052   3.279   8.401
30498SOD    SOD95824   5.626   2.406   8.562
30499SOD    SOD95825   6.401   2.434   7.773
30500SOD    SOD95826   6.176   3.349   7.939
30501SOD    SOD95827   6.204   3.429   8.732
30502SOD    SOD95828   5.996   4.537   1.251
30503SOD    SOD95829   7.243   4.328   1.206
30504SOD    SOD95830   6.136   3.920   2.747
30505SOD    SOD95831   6.697   4.919   2.962
30506SOD    SOD95832   5.940   5.234   3.191
30507SOD    SOD95833   6.199   4.566   3.293
30508SOD    SOD95834   7.046   5.229   5.063
30509SOD    SOD95835   6.393   4.329   5.189
30510SOD    SOD95836   5.968   4.424   4.204
30511SOD    SOD95837   7.168   4.363   4.196
30512SOD    SOD95838   6.600   3.960   4.695
30513SOD    SOD95839   5.605   4.092   6.233
30514SOD    SOD95840   7.227   4.832   6.018
30515SOD    SOD95841   7.133   3.946   7.315
30516SOD    SOD95842   5.664   4.280   6.972
30517SOD    SOD95843   5.953   4.824   6.087
30518SOD    SOD95844   7.427   3.899   6.549
30519SOD    SOD95845   6.258   5.115   7.210
30520SOD    SOD95846   7.052   5.141   8.401
30521SOD    SOD95847   5.968   4.424   7.928
30522SOD    SOD95848   6.508   4.227   8.347
30523SOD    SOD95849   5.664   4.280   8.834
30524SOD    SOD95850   6.176   5.211   7.939
30525SOD    SOD95851   7.218   5.101   9.391
30526SOD    SOD95852   7.180   5.700   1.480
30527SOD    SOD95853   5.783   6.562   1.264
30528SOD    SOD95854   5.716   7.407   1.571
30529SOD    SOD95855   6.180   6.331   0.652
30530SOD    SOD95856   5.816   6.214   1.975
30531SOD    SOD95857   5.937   7.387   2.715
30532SOD    SOD95858   7.208   5.953   2.236
30533SOD    SOD95859   5.905   6.396   2.811
30534SOD    SOD95860   7.090   7.193   1.906
30535SOD    SOD95861   6.587   5.620   3.016
30536SOD    SOD95862   6.192   6.550   3.847
30537SOD    SOD95863   5.708   6.229   4.287
30538SOD    SOD95864   6.125   5.650   4.236
30539SOD    SOD95865   6.318   6.220   4.788
30540SOD    SOD95866   7.445   7.104   5.329
30541SOD    SOD95867   6.713   6.927   7.276
30542SOD    SOD95868   6.047   6.852   7.313
30543SOD    SOD95869   6.050   7.329   5.909
30544SOD    SOD95870   7.010   5.800   6.698
30545SOD    SOD95871   5.708   6.229   8.011
30546SOD    SOD95872   6.627   6.287   7.877
30547SOD    SOD95873   7.173   6.365   9.118
30548SOD    SOD95874   5.674   7.387   8.375
30549SOD    SOD95875   6.176   7.073   7.939
30550SOD    SOD95876   5.661   5.931   7.481
30551SOD    SOD95877   7.079   7.353   8.407
30552SOD    SOD95878   5.953   8.548   0.501
30553SOD    SOD95879   7.133   7.670   3.591
30554SOD    SOD95880   6.501   7.537   3.264
30555SOD    SOD95881   7.200   8.740   3.151
30556SOD    SOD95882   6.180   8.193   2.514
30557SOD    SOD95883   5.811   7.723   4.720
30558SOD    SOD95884   5.968   8.148   4.204
30559SOD    SOD95885   5.883   7.483   3.895
30560SOD    SOD95886   6.354   8.592   6.609
30561SOD    SOD95887   7.052   8.865   6.539
30562SOD    SOD95888   6.867   7.793   6.530
30563SOD    SOD95889   7.020   8.636   5.627
30564SOD    SOD95890   7.445   8.966   7.191
30565SOD    SOD95891   6.258   7.651   7.075
30566SOD    SOD95892   6.888   8.303   7.757
30567SOD    SOD95893   6.445   8.822   9.326
30568SOD    SOD95894   6.257   9.774   1.269
30569SOD    SOD95895   6.113   9.566   2.190
30570SOD    SOD95896   6.986   9.417   4.150
30571SOD    SOD95897   7.044  10.045   6.314
30572SOD    SOD95898   5.883   9.345   9.481
30573SOD    SOD95899   7.858   0.813   3.113
30574SOD    SOD95900   8.675   1.570   4.517
30575SOD    SOD95901   7.787   0.509   4.730
30576SOD    SOD95902   9.105   0.604   6.792
30577SOD    SOD95903   8.046   0.729   9.580
30578SOD    SOD95904   8.751   0.838   9.352
30579SOD    SOD95905   9.030   2.501   0.472
30580SOD    SOD95906   9.035   2.641   1.670
30581SOD    SOD95907   7.561   2.599   3.459
30582SOD    SOD95908   8.017   3.137   6.751
30583SOD    SOD95909   9.098   3.582   6.980
30584SOD    SOD95910   8.388   3.560   8.352
30585SOD    SOD95911   9.098   3.582   8.842
30586SOD    SOD95912   7.669   3.176   9.292
30587SOD    SOD95913   8.988   2.136   9.435
30588SOD    SOD95914   8.750   4.579   0.309
30589SOD    SOD95915   7.527   4.964   0.653
30590SOD    SOD95916   8.722   4.110   4.986
30591SOD    SOD95917   8.795   4.783   4.958
30592SOD    SOD95918   8.750   4.579   4.033
30593SOD    SOD95919   7.798   4.622   7.390
30594SOD    SOD95920   8.323   5.370   5.923
30595SOD    SOD95921   7.745   3.759   7.619
30596SOD    SOD95922   8.516   5.057   8.297
30597SOD    SOD95923   8.038   5.211   7.939
30598SOD    SOD95924   8.364   4.634   9.601
30599SOD    SOD95925   7.673   5.861   0.996
30600SOD    SOD95926   8.428   6.702   1.719
30601SOD    SOD95927   8.657   6.111   0.275
30602SOD    SOD95928   9.035   6.365   3.532
30603SOD    SOD95929   8.471   6.352   2.828
30604SOD    SOD95930   7.475   7.182   3.841
30605SOD    SOD95931   7.488   6.130   4.838
30606SOD    SOD95932   8.042   6.331   6.238
30607SOD    SOD95933   7.527   6.826   6.239
30608SOD    SOD95934   8.906   6.321   8.176
30609SOD    SOD95935   9.174   5.721   9.833
30610SOD    SOD95936   8.952   7.193   9.354
30611SOD    SOD95937   8.134   8.609   1.803
30612SOD    SOD95938   9.024   9.110   0.307
30613SOD    SOD95939   8.608   7.655   1.477
30614SOD    SOD95940   7.467   7.816   2.509
30615SOD    SOD95941   8.559   9.224   3.961
30616SOD    SOD95942   8.014   7.985   4.589
30617SOD    SOD95943   7.838   9.189   5.284
30618SOD    SOD95944   8.741   8.676   8.871
30619SOD    SOD95945   8.383   7.684   7.928
30620SOD    SOD95946   8.014   7.985   8.313
30621SOD    SOD95947   8.489  10.011   2.291
30622SOD    SOD95948   7.952   9.360   3.602
30623SOD    SOD95949   9.541   1.713   2.345
30624SOD    SOD95950   9.661   1.801   6.439
30625SOD    SOD95951   9.617   0.063   6.204
30626SOD    SOD95952   9.871   0.222   8.595
30627SOD    SOD95953   9.347   1.310   8.730
30628SOD    SOD95954   9.748   2.254   1.499
30629SOD    SOD95955   9.337   3.458   1.979
30630SOD    SOD95956   9.904   4.469   0.652
30631SOD    SOD95957   9.512   4.009   5.222
30632SOD    SOD95958   9.645   5.159   6.647
30633SOD    SOD95959   9.386   4.535  10.099
30634SOD    SOD95960   9.660   6.484   3.666
30635SOD    SOD95961   9.440   7.407   5.295
30636SOD    SOD95962   9.774   7.329   5.909
30637SOD    SOD95963   9.837   5.842   9.638
30638SOD    SOD95964   9.507   8.424   1.264
30639SOD    SOD95965   9.423   8.185   5.321
30640SOD    SOD95966   9.649   7.957   8.454
30641SOD    SOD95967   9.382   7.614   7.766
30642SOD    SOD95968   9.769   8.600  10.051
30643SOD    SOD95969  10.175   9.658   7.643
  10.00000  10.00000  10.00000
